 Entering Gaussian System, Link 0=g16
 Initial command:
 /opt/ohpc/pub/apps/gaussian/16-B01/g16/l1.exe "/scratch/bt-local/Gau-204148.inp" -scrdir="/scratch/bt-local/"
 Entering Link 1 = /opt/ohpc/pub/apps/gaussian/16-B01/g16/l1.exe PID=    204150.
  
 Copyright (c) 1988-2017, Gaussian, Inc.  All Rights Reserved.
  
 This is part of the Gaussian(R) 16 program.  It is based on
 the Gaussian(R) 09 system (copyright 2009, Gaussian, Inc.),
 the Gaussian(R) 03 system (copyright 2003, Gaussian, Inc.),
 the Gaussian(R) 98 system (copyright 1998, Gaussian, Inc.),
 the Gaussian(R) 94 system (copyright 1995, Gaussian, Inc.),
 the Gaussian 92(TM) system (copyright 1992, Gaussian, Inc.),
 the Gaussian 90(TM) system (copyright 1990, Gaussian, Inc.),
 the Gaussian 88(TM) system (copyright 1988, Gaussian, Inc.),
 the Gaussian 86(TM) system (copyright 1986, Carnegie Mellon
 University), and the Gaussian 82(TM) system (copyright 1983,
 Carnegie Mellon University). Gaussian is a federally registered
 trademark of Gaussian, Inc.
  
 This software contains proprietary and confidential information,
 including trade secrets, belonging to Gaussian, Inc.
  
 This software is provided under written license and may be
 used, copied, transmitted, or stored only in accord with that
 written license.
  
 The following legend is applicable only to US Government
 contracts under FAR:
  
                    RESTRICTED RIGHTS LEGEND
  
 Use, reproduction and disclosure by the US Government is
 subject to restrictions as set forth in subparagraphs (a)
 and (c) of the Commercial Computer Software - Restricted
 Rights clause in FAR 52.227-19.
  
 Gaussian, Inc.
 340 Quinnipiac St., Bldg. 40, Wallingford CT 06492
  
  
 ---------------------------------------------------------------
 Warning -- This program may not be used in any manner that
 competes with the business of Gaussian, Inc. or will provide
 assistance to any competitor of Gaussian, Inc.  The licensee
 of this program is prohibited from giving any competitor of
 Gaussian, Inc. access to this program.  By using this program,
 the user acknowledges that Gaussian, Inc. is engaged in the
 business of creating and licensing software in the field of
 computational chemistry and represents and warrants to the
 licensee that it is not a competitor of Gaussian, Inc. and that
 it will not use this program in any manner prohibited above.
 ---------------------------------------------------------------
  

 Cite this work as:
 Gaussian 16, Revision B.01,
 M. J. Frisch, G. W. Trucks, H. B. Schlegel, G. E. Scuseria, 
 M. A. Robb, J. R. Cheeseman, G. Scalmani, V. Barone, 
 G. A. Petersson, H. Nakatsuji, X. Li, M. Caricato, A. V. Marenich, 
 J. Bloino, B. G. Janesko, R. Gomperts, B. Mennucci, H. P. Hratchian, 
 J. V. Ortiz, A. F. Izmaylov, J. L. Sonnenberg, D. Williams-Young, 
 F. Ding, F. Lipparini, F. Egidi, J. Goings, B. Peng, A. Petrone, 
 T. Henderson, D. Ranasinghe, V. G. Zakrzewski, J. Gao, N. Rega, 
 G. Zheng, W. Liang, M. Hada, M. Ehara, K. Toyota, R. Fukuda, 
 J. Hasegawa, M. Ishida, T. Nakajima, Y. Honda, O. Kitao, H. Nakai, 
 T. Vreven, K. Throssell, J. A. Montgomery, Jr., J. E. Peralta, 
 F. Ogliaro, M. J. Bearpark, J. J. Heyd, E. N. Brothers, K. N. Kudin, 
 V. N. Staroverov, T. A. Keith, R. Kobayashi, J. Normand, 
 K. Raghavachari, A. P. Rendell, J. C. Burant, S. S. Iyengar, 
 J. Tomasi, M. Cossi, J. M. Millam, M. Klene, C. Adamo, R. Cammi, 
 J. W. Ochterski, R. L. Martin, K. Morokuma, O. Farkas, 
 J. B. Foresman, and D. J. Fox, Gaussian, Inc., Wallingford CT, 2016.
 
 ******************************************
 Gaussian 16:  ES64L-G16RevB.01 20-Dec-2017
                17-Apr-2019 
 ******************************************
 %nproc=12
 Will use up to   12 processors via shared memory.
 %mem=110gb
 %chk=jneutral-opt.chk
 -----------------------------------------------------------------
 #T b3lyp/6-31+G* integral=UltraFine opt(maxstep=10,maxcycles=200)
 -----------------------------------------------------------------
 ------------------
 4-BMC-optimization
 ------------------
 Symbolic Z-matrix:
 Charge =  0 Multiplicity = 1
 O                     0.        0.        0. 
 C                     0.        0.        3.506 
 C                     0.        0.97      2.28 
 C                     1.451    -0.522     3.252 
 C                     1.308     1.794     2.517 
 C                     2.282     0.795     3.225 
 C                     1.354    -0.966     1.809 
 C                     0.387    -0.008     1.168 
 C                    -0.166     0.707     4.856 
 C                    -1.056    -1.109     3.398 
 C                    -1.241     1.793     1.995 
 H                     1.797    -1.29      3.96 
 H                     1.08      2.665     3.152 
 H                     1.71      2.178     1.566 
 H                     3.222     0.665     2.667 
 H                     2.537     1.127     4.244 
 H                     0.51      1.564     4.986 
 H                     0.026    -0.005     5.676 
 H                    -1.201     1.073     4.968 
 H                    -0.919    -1.842     4.212 
 H                    -1.       -1.653     2.441 
 H                    -2.069    -0.686     3.493 
 H                    -1.099     2.389     1.079 
 H                    -1.454     2.482     2.829 
 H                    -2.118     1.146     1.835 
 C                     1.938    -1.987     1.122 
 H                     2.252    -2.85      1.726 
 C                     2.223    -2.033    -0.316 
 C                     1.458    -1.318    -1.27 
 C                     3.287    -2.844    -0.783 
 C                     1.776    -1.389    -2.637 
 H                     0.59     -0.739    -0.947 
 C                     3.602    -2.901    -2.149 
 H                     3.872    -3.424    -0.061 
 C                     2.856    -2.17     -3.1 
 H                     1.165    -0.838    -3.36 
 H                     4.435    -3.529    -2.485 
 C                     3.209    -2.234    -4.569 
 H                     3.26     -3.278    -4.918 
 H                     2.463    -1.703    -5.18 
 H                     4.193    -1.772    -4.756 
 

 GradGradGradGradGradGradGradGradGradGradGradGradGradGradGradGradGradGrad
 Initialization pass.
                           ----------------------------
                           !    Initial Parameters    !
                           ! (Angstroms and Degrees)  !
 --------------------------                            --------------------------
 ! Name  Definition              Value          Derivative Info.                !
 --------------------------------------------------------------------------------
 ! R1    R(1,8)                  1.2305         estimate D2E/DX2                !
 ! R2    R(2,3)                  1.5633         estimate D2E/DX2                !
 ! R3    R(2,4)                  1.5628         estimate D2E/DX2                !
 ! R4    R(2,9)                  1.5329         estimate D2E/DX2                !
 ! R5    R(2,10)                 1.5351         estimate D2E/DX2                !
 ! R6    R(3,5)                  1.564          estimate D2E/DX2                !
 ! R7    R(3,8)                  1.5306         estimate D2E/DX2                !
 ! R8    R(3,11)                 1.5161         estimate D2E/DX2                !
 ! R9    R(4,6)                  1.5575         estimate D2E/DX2                !
 ! R10   R(4,7)                  1.5129         estimate D2E/DX2                !
 ! R11   R(4,12)                 1.1004         estimate D2E/DX2                !
 ! R12   R(5,6)                  1.5646         estimate D2E/DX2                !
 ! R13   R(5,13)                 1.1017         estimate D2E/DX2                !
 ! R14   R(5,14)                 1.1016         estimate D2E/DX2                !
 ! R15   R(6,15)                 1.1008         estimate D2E/DX2                !
 ! R16   R(6,16)                 1.1016         estimate D2E/DX2                !
 ! R17   R(7,8)                  1.5046         estimate D2E/DX2                !
 ! R18   R(7,26)                 1.3622         estimate D2E/DX2                !
 ! R19   R(9,17)                 1.0992         estimate D2E/DX2                !
 ! R20   R(9,18)                 1.1028         estimate D2E/DX2                !
 ! R21   R(9,19)                 1.1035         estimate D2E/DX2                !
 ! R22   R(10,20)                1.1039         estimate D2E/DX2                !
 ! R23   R(10,21)                1.1022         estimate D2E/DX2                !
 ! R24   R(10,22)                1.1019         estimate D2E/DX2                !
 ! R25   R(11,23)                1.102          estimate D2E/DX2                !
 ! R26   R(11,24)                1.1026         estimate D2E/DX2                !
 ! R27   R(11,25)                1.1015         estimate D2E/DX2                !
 ! R28   R(26,27)                1.0992         estimate D2E/DX2                !
 ! R29   R(26,28)                1.4667         estimate D2E/DX2                !
 ! R30   R(28,29)                1.4165         estimate D2E/DX2                !
 ! R31   R(28,30)                1.417          estimate D2E/DX2                !
 ! R32   R(29,31)                1.4053         estimate D2E/DX2                !
 ! R33   R(29,32)                1.0922         estimate D2E/DX2                !
 ! R34   R(30,33)                1.403          estimate D2E/DX2                !
 ! R35   R(30,34)                1.0954         estimate D2E/DX2                !
 ! R36   R(31,35)                1.4109         estimate D2E/DX2                !
 ! R37   R(31,36)                1.0953         estimate D2E/DX2                !
 ! R38   R(33,35)                1.4125         estimate D2E/DX2                !
 ! R39   R(33,37)                1.096          estimate D2E/DX2                !
 ! R40   R(35,38)                1.5122         estimate D2E/DX2                !
 ! R41   R(38,39)                1.102          estimate D2E/DX2                !
 ! R42   R(38,40)                1.1008         estimate D2E/DX2                !
 ! R43   R(38,41)                1.103          estimate D2E/DX2                !
 ! A1    A(3,2,4)               94.5764         estimate D2E/DX2                !
 ! A2    A(3,2,9)              113.8581         estimate D2E/DX2                !
 ! A3    A(3,2,10)             113.1452         estimate D2E/DX2                !
 ! A4    A(4,2,9)              113.4357         estimate D2E/DX2                !
 ! A5    A(4,2,10)             112.702          estimate D2E/DX2                !
 ! A6    A(9,2,10)             108.7018         estimate D2E/DX2                !
 ! A7    A(2,3,5)              102.009          estimate D2E/DX2                !
 ! A8    A(2,3,8)               99.979          estimate D2E/DX2                !
 ! A9    A(2,3,11)             118.9621         estimate D2E/DX2                !
 ! A10   A(5,3,8)              103.608          estimate D2E/DX2                !
 ! A11   A(5,3,11)             115.2808         estimate D2E/DX2                !
 ! A12   A(8,3,11)             114.6602         estimate D2E/DX2                !
 ! A13   A(2,4,6)              102.4598         estimate D2E/DX2                !
 ! A14   A(2,4,7)              101.1581         estimate D2E/DX2                !
 ! A15   A(2,4,12)             114.8657         estimate D2E/DX2                !
 ! A16   A(6,4,7)              105.4168         estimate D2E/DX2                !
 ! A17   A(6,4,12)             115.694          estimate D2E/DX2                !
 ! A18   A(7,4,12)             115.406          estimate D2E/DX2                !
 ! A19   A(3,5,6)              104.6437         estimate D2E/DX2                !
 ! A20   A(3,5,13)             109.3164         estimate D2E/DX2                !
 ! A21   A(3,5,14)             110.98           estimate D2E/DX2                !
 ! A22   A(6,5,13)             111.8882         estimate D2E/DX2                !
 ! A23   A(6,5,14)             112.7095         estimate D2E/DX2                !
 ! A24   A(13,5,14)            107.3082         estimate D2E/DX2                !
 ! A25   A(4,6,5)              102.4513         estimate D2E/DX2                !
 ! A26   A(4,6,15)             111.3782         estimate D2E/DX2                !
 ! A27   A(4,6,16)             111.2416         estimate D2E/DX2                !
 ! A28   A(5,6,15)             112.185          estimate D2E/DX2                !
 ! A29   A(5,6,16)             111.7305         estimate D2E/DX2                !
 ! A30   A(15,6,16)            107.8662         estimate D2E/DX2                !
 ! A31   A(4,7,8)              105.1115         estimate D2E/DX2                !
 ! A32   A(4,7,26)             132.3411         estimate D2E/DX2                !
 ! A33   A(8,7,26)             122.5433         estimate D2E/DX2                !
 ! A34   A(1,8,3)              127.2968         estimate D2E/DX2                !
 ! A35   A(1,8,7)              127.6391         estimate D2E/DX2                !
 ! A36   A(3,8,7)              105.0598         estimate D2E/DX2                !
 ! A37   A(2,9,17)             113.3986         estimate D2E/DX2                !
 ! A38   A(2,9,18)             109.7672         estimate D2E/DX2                !
 ! A39   A(2,9,19)             110.1157         estimate D2E/DX2                !
 ! A40   A(17,9,18)            107.9594         estimate D2E/DX2                !
 ! A41   A(17,9,19)            107.831          estimate D2E/DX2                !
 ! A42   A(18,9,19)            107.5752         estimate D2E/DX2                !
 ! A43   A(2,10,20)            110.025          estimate D2E/DX2                !
 ! A44   A(2,10,21)            112.4993         estimate D2E/DX2                !
 ! A45   A(2,10,22)            110.4267         estimate D2E/DX2                !
 ! A46   A(20,10,21)           107.8301         estimate D2E/DX2                !
 ! A47   A(20,10,22)           107.7835         estimate D2E/DX2                !
 ! A48   A(21,10,22)           108.1214         estimate D2E/DX2                !
 ! A49   A(3,11,23)            110.1424         estimate D2E/DX2                !
 ! A50   A(3,11,24)            110.8031         estimate D2E/DX2                !
 ! A51   A(3,11,25)            111.1099         estimate D2E/DX2                !
 ! A52   A(23,11,24)           108.401          estimate D2E/DX2                !
 ! A53   A(23,11,25)           107.4289         estimate D2E/DX2                !
 ! A54   A(24,11,25)           108.8515         estimate D2E/DX2                !
 ! A55   A(7,26,27)            115.7109         estimate D2E/DX2                !
 ! A56   A(7,26,28)            126.963          estimate D2E/DX2                !
 ! A57   A(27,26,28)           117.2981         estimate D2E/DX2                !
 ! A58   A(26,28,29)           122.6516         estimate D2E/DX2                !
 ! A59   A(26,28,30)           119.1422         estimate D2E/DX2                !
 ! A60   A(29,28,30)           118.1931         estimate D2E/DX2                !
 ! A61   A(28,29,31)           120.4918         estimate D2E/DX2                !
 ! A62   A(28,29,32)           119.8404         estimate D2E/DX2                !
 ! A63   A(31,29,32)           119.6219         estimate D2E/DX2                !
 ! A64   A(28,30,33)           120.8447         estimate D2E/DX2                !
 ! A65   A(28,30,34)           119.1321         estimate D2E/DX2                !
 ! A66   A(33,30,34)           120.021          estimate D2E/DX2                !
 ! A67   A(29,31,35)           121.3583         estimate D2E/DX2                !
 ! A68   A(29,31,36)           119.3711         estimate D2E/DX2                !
 ! A69   A(35,31,36)           119.2653         estimate D2E/DX2                !
 ! A70   A(30,33,35)           121.0574         estimate D2E/DX2                !
 ! A71   A(30,33,37)           119.4993         estimate D2E/DX2                !
 ! A72   A(35,33,37)           119.4414         estimate D2E/DX2                !
 ! A73   A(31,35,33)           118.0202         estimate D2E/DX2                !
 ! A74   A(31,35,38)           121.3924         estimate D2E/DX2                !
 ! A75   A(33,35,38)           120.5869         estimate D2E/DX2                !
 ! A76   A(35,38,39)           111.012          estimate D2E/DX2                !
 ! A77   A(35,38,40)           111.1361         estimate D2E/DX2                !
 ! A78   A(35,38,41)           110.8066         estimate D2E/DX2                !
 ! A79   A(39,38,40)           108.2143         estimate D2E/DX2                !
 ! A80   A(39,38,41)           107.5678         estimate D2E/DX2                !
 ! A81   A(40,38,41)           107.9636         estimate D2E/DX2                !
 ! D1    D(4,2,3,5)            -52.578          estimate D2E/DX2                !
 ! D2    D(4,2,3,8)             53.7816         estimate D2E/DX2                !
 ! D3    D(4,2,3,11)           179.3431         estimate D2E/DX2                !
 ! D4    D(9,2,3,5)             65.5648         estimate D2E/DX2                !
 ! D5    D(9,2,3,8)            171.9245         estimate D2E/DX2                !
 ! D6    D(9,2,3,11)           -62.514          estimate D2E/DX2                !
 ! D7    D(10,2,3,5)          -169.6609         estimate D2E/DX2                !
 ! D8    D(10,2,3,8)           -63.3012         estimate D2E/DX2                !
 ! D9    D(10,2,3,11)           62.2603         estimate D2E/DX2                !
 ! D10   D(3,2,4,6)             55.2014         estimate D2E/DX2                !
 ! D11   D(3,2,4,7)            -53.5269         estimate D2E/DX2                !
 ! D12   D(3,2,4,12)          -178.5141         estimate D2E/DX2                !
 ! D13   D(9,2,4,6)            -63.2847         estimate D2E/DX2                !
 ! D14   D(9,2,4,7)           -172.013          estimate D2E/DX2                !
 ! D15   D(9,2,4,12)            62.9998         estimate D2E/DX2                !
 ! D16   D(10,2,4,6)           172.6479         estimate D2E/DX2                !
 ! D17   D(10,2,4,7)            63.9196         estimate D2E/DX2                !
 ! D18   D(10,2,4,12)          -61.0676         estimate D2E/DX2                !
 ! D19   D(3,2,9,17)           -48.9128         estimate D2E/DX2                !
 ! D20   D(3,2,9,18)          -169.7442         estimate D2E/DX2                !
 ! D21   D(3,2,9,19)            72.0049         estimate D2E/DX2                !
 ! D22   D(4,2,9,17)            57.7536         estimate D2E/DX2                !
 ! D23   D(4,2,9,18)           -63.0779         estimate D2E/DX2                !
 ! D24   D(4,2,9,19)           178.6713         estimate D2E/DX2                !
 ! D25   D(10,2,9,17)         -176.0308         estimate D2E/DX2                !
 ! D26   D(10,2,9,18)           63.1377         estimate D2E/DX2                !
 ! D27   D(10,2,9,19)          -55.1131         estimate D2E/DX2                !
 ! D28   D(3,2,10,20)          172.0691         estimate D2E/DX2                !
 ! D29   D(3,2,10,21)           51.8235         estimate D2E/DX2                !
 ! D30   D(3,2,10,22)          -69.074          estimate D2E/DX2                !
 ! D31   D(4,2,10,20)           66.2328         estimate D2E/DX2                !
 ! D32   D(4,2,10,21)          -54.0128         estimate D2E/DX2                !
 ! D33   D(4,2,10,22)         -174.9104         estimate D2E/DX2                !
 ! D34   D(9,2,10,20)          -60.4062         estimate D2E/DX2                !
 ! D35   D(9,2,10,21)          179.3482         estimate D2E/DX2                !
 ! D36   D(9,2,10,22)           58.4506         estimate D2E/DX2                !
 ! D37   D(2,3,5,6)             31.8733         estimate D2E/DX2                !
 ! D38   D(2,3,5,13)           -88.1191         estimate D2E/DX2                !
 ! D39   D(2,3,5,14)           153.7133         estimate D2E/DX2                !
 ! D40   D(8,3,5,6)            -71.6462         estimate D2E/DX2                !
 ! D41   D(8,3,5,13)           168.3614         estimate D2E/DX2                !
 ! D42   D(8,3,5,14)            50.1938         estimate D2E/DX2                !
 ! D43   D(11,3,5,6)           162.2618         estimate D2E/DX2                !
 ! D44   D(11,3,5,13)           42.2694         estimate D2E/DX2                !
 ! D45   D(11,3,5,14)          -75.8982         estimate D2E/DX2                !
 ! D46   D(2,3,8,1)            145.2123         estimate D2E/DX2                !
 ! D47   D(2,3,8,7)            -35.5059         estimate D2E/DX2                !
 ! D48   D(5,3,8,1)           -109.7202         estimate D2E/DX2                !
 ! D49   D(5,3,8,7)             69.5616         estimate D2E/DX2                !
 ! D50   D(11,3,8,1)            16.7654         estimate D2E/DX2                !
 ! D51   D(11,3,8,7)          -163.9528         estimate D2E/DX2                !
 ! D52   D(2,3,11,23)         -177.5468         estimate D2E/DX2                !
 ! D53   D(2,3,11,24)           62.5174         estimate D2E/DX2                !
 ! D54   D(2,3,11,25)          -58.6267         estimate D2E/DX2                !
 ! D55   D(5,3,11,23)           60.8269         estimate D2E/DX2                !
 ! D56   D(5,3,11,24)          -59.109          estimate D2E/DX2                !
 ! D57   D(5,3,11,25)          179.7469         estimate D2E/DX2                !
 ! D58   D(8,3,11,23)          -59.3811         estimate D2E/DX2                !
 ! D59   D(8,3,11,24)         -179.317          estimate D2E/DX2                !
 ! D60   D(8,3,11,25)           59.5389         estimate D2E/DX2                !
 ! D61   D(2,4,6,5)            -36.7251         estimate D2E/DX2                !
 ! D62   D(2,4,6,15)          -156.8378         estimate D2E/DX2                !
 ! D63   D(2,4,6,16)            82.7882         estimate D2E/DX2                !
 ! D64   D(7,4,6,5)             68.7318         estimate D2E/DX2                !
 ! D65   D(7,4,6,15)           -51.3808         estimate D2E/DX2                !
 ! D66   D(7,4,6,16)          -171.7548         estimate D2E/DX2                !
 ! D67   D(12,4,6,5)          -162.4716         estimate D2E/DX2                !
 ! D68   D(12,4,6,15)           77.4158         estimate D2E/DX2                !
 ! D69   D(12,4,6,16)          -42.9583         estimate D2E/DX2                !
 ! D70   D(2,4,7,8)             33.4152         estimate D2E/DX2                !
 ! D71   D(2,4,7,26)          -145.8371         estimate D2E/DX2                !
 ! D72   D(6,4,7,8)            -72.995          estimate D2E/DX2                !
 ! D73   D(6,4,7,26)           107.7527         estimate D2E/DX2                !
 ! D74   D(12,4,7,8)           158.0377         estimate D2E/DX2                !
 ! D75   D(12,4,7,26)          -21.2146         estimate D2E/DX2                !
 ! D76   D(3,5,6,4)              2.8195         estimate D2E/DX2                !
 ! D77   D(3,5,6,15)           122.3699         estimate D2E/DX2                !
 ! D78   D(3,5,6,16)          -116.3515         estimate D2E/DX2                !
 ! D79   D(13,5,6,4)           121.0765         estimate D2E/DX2                !
 ! D80   D(13,5,6,15)         -119.3731         estimate D2E/DX2                !
 ! D81   D(13,5,6,16)            1.9055         estimate D2E/DX2                !
 ! D82   D(14,5,6,4)          -117.8787         estimate D2E/DX2                !
 ! D83   D(14,5,6,15)            1.6717         estimate D2E/DX2                !
 ! D84   D(14,5,6,16)          122.9503         estimate D2E/DX2                !
 ! D85   D(4,7,8,1)           -179.3458         estimate D2E/DX2                !
 ! D86   D(4,7,8,3)              1.3756         estimate D2E/DX2                !
 ! D87   D(26,7,8,1)            -0.0014         estimate D2E/DX2                !
 ! D88   D(26,7,8,3)          -179.2799         estimate D2E/DX2                !
 ! D89   D(4,7,26,27)           24.8676         estimate D2E/DX2                !
 ! D90   D(4,7,26,28)         -153.1441         estimate D2E/DX2                !
 ! D91   D(8,7,26,27)         -154.2761         estimate D2E/DX2                !
 ! D92   D(8,7,26,28)           27.7122         estimate D2E/DX2                !
 ! D93   D(7,26,28,29)         -27.8868         estimate D2E/DX2                !
 ! D94   D(7,26,28,30)         153.4557         estimate D2E/DX2                !
 ! D95   D(27,26,28,29)        154.1292         estimate D2E/DX2                !
 ! D96   D(27,26,28,30)        -24.5283         estimate D2E/DX2                !
 ! D97   D(26,28,29,31)        179.6471         estimate D2E/DX2                !
 ! D98   D(26,28,29,32)         -2.8265         estimate D2E/DX2                !
 ! D99   D(30,28,29,31)         -1.6833         estimate D2E/DX2                !
 ! D100  D(30,28,29,32)        175.8431         estimate D2E/DX2                !
 ! D101  D(26,28,30,33)       -179.159          estimate D2E/DX2                !
 ! D102  D(26,28,30,34)          0.2973         estimate D2E/DX2                !
 ! D103  D(29,28,30,33)          2.1235         estimate D2E/DX2                !
 ! D104  D(29,28,30,34)       -178.4203         estimate D2E/DX2                !
 ! D105  D(28,29,31,35)          0.1398         estimate D2E/DX2                !
 ! D106  D(28,29,31,36)        179.2886         estimate D2E/DX2                !
 ! D107  D(32,29,31,35)       -177.392          estimate D2E/DX2                !
 ! D108  D(32,29,31,36)          1.7567         estimate D2E/DX2                !
 ! D109  D(28,30,33,35)         -1.0246         estimate D2E/DX2                !
 ! D110  D(28,30,33,37)        179.4785         estimate D2E/DX2                !
 ! D111  D(34,30,33,35)        179.524          estimate D2E/DX2                !
 ! D112  D(34,30,33,37)          0.0271         estimate D2E/DX2                !
 ! D113  D(29,31,35,33)          0.9878         estimate D2E/DX2                !
 ! D114  D(29,31,35,38)       -179.2657         estimate D2E/DX2                !
 ! D115  D(36,31,35,33)       -178.1618         estimate D2E/DX2                !
 ! D116  D(36,31,35,38)          1.5846         estimate D2E/DX2                !
 ! D117  D(30,33,35,31)         -0.5479         estimate D2E/DX2                !
 ! D118  D(30,33,35,38)        179.7035         estimate D2E/DX2                !
 ! D119  D(37,33,35,31)        178.9493         estimate D2E/DX2                !
 ! D120  D(37,33,35,38)         -0.7993         estimate D2E/DX2                !
 ! D121  D(31,35,38,39)       -126.7692         estimate D2E/DX2                !
 ! D122  D(31,35,38,40)         -6.2732         estimate D2E/DX2                !
 ! D123  D(31,35,38,41)        113.7685         estimate D2E/DX2                !
 ! D124  D(33,35,38,39)         52.9708         estimate D2E/DX2                !
 ! D125  D(33,35,38,40)        173.4669         estimate D2E/DX2                !
 ! D126  D(33,35,38,41)        -66.4915         estimate D2E/DX2                !
 --------------------------------------------------------------------------------
 Trust Radius=1.00D-01 FncErr=1.00D-07 GrdErr=1.00D-06 EigMax=2.50D+02 EigMin=1.00D-04
 Number of steps in this run=    200 maximum allowed number of steps=    246.
 GradGradGradGradGradGradGradGradGradGradGradGradGradGradGradGradGradGrad

                    Distance matrix (angstroms):
                    1          2          3          4          5
     1  O    0.000000
     2  C    3.506000   0.000000
     3  C    2.477761   1.563322   0.000000
     4  C    3.599082   1.562818   2.297009   0.000000
     5  C    3.356276   2.430519   1.563972   2.434036   0.000000
     6  C    4.029910   2.432799   2.476121   1.557491   1.564590
     7  C    2.457428   2.376190   2.408994   1.512876   2.849733
     8  C    1.230470   2.369826   1.530620   2.395694   2.432128
     9  C    4.910004   1.532940   2.594706   2.588039   2.970718
    10  C    3.727120   1.535149   2.585982   2.578940   3.846046
    11  C    2.955496   2.652933   1.516125   3.766449   2.601900
    12  H    4.535957   2.258191   3.340540   1.100365   3.439829
    13  H    4.266583   2.897230   2.190847   3.210079   1.101749
    14  H    3.181217   3.381033   2.212049   3.193693   1.101572
    15  H    4.235138   3.395207   3.259460   2.210800   2.227226
    16  H    5.071295   2.872480   3.212213   2.209674   2.222129
    17  H    5.250371   2.212825   2.816979   2.871173   2.604931
    18  H    5.676062   2.170162   3.533287   2.858967   3.854764
    19  H    5.222524   2.175126   2.945905   3.538613   3.580827
    20  H    4.688120   2.176226   3.533345   2.877655   4.588360
    21  H    3.113019   2.206045   2.811770   2.818560   4.149030
    22  H    4.117330   2.179800   2.914527   3.532050   4.301988
    23  H    2.842422   3.578470   2.159575   4.438282   2.866272
    24  H    4.034561   2.955126   2.168331   4.200235   2.863448
    25  H    3.027617   2.931123   2.171388   4.186630   3.552816
    26  C    2.993810   3.658889   3.720303   2.630645   4.079079
    27  H    4.021577   4.045047   4.468872   2.896526   4.804535
    28  C    3.028972   4.866467   4.549610   3.950915   4.848612
    29  C    2.340040   5.164597   4.468021   4.591530   4.903918
    30  C    4.416536   6.106409   5.893465   5.004379   6.026399
    31  C    3.469476   6.543695   5.735499   5.961345   6.075708
    32  H    1.338294   4.552299   3.698961   4.291854   4.350966
    33  C    5.099844   7.305425   6.897470   6.281500   7.005499
    34  H    5.169128   6.280099   6.307131   5.025815   6.359851
    35  C    4.740848   7.516972   6.852790   6.711023   7.047006
    36  H    3.653638   7.014373   6.036198   6.625722   6.441040
    37  H    6.188561   8.247130   7.912993   7.131583   7.945594
    38  C    6.013668   8.971848   8.214140   8.196923   8.369587
    39  H    6.749786   9.609197   8.971305   8.810046   9.209490
    40  H    5.983225   9.187664   8.298367   8.574236   8.532693
    41  H    6.583371   9.433021   8.637425   8.556233   8.598611
                    6          7          8          9         10
     6  C    0.000000
     7  C    2.442818   0.000000
     8  C    2.909825   1.504571   0.000000
     9  C    2.942891   3.793882   3.797154   0.000000
    10  C    3.846737   2.890237   2.875300   2.493135   0.000000
    11  C    3.862698   3.792190   2.564744   3.243508   3.228659
    12  H    2.263333   2.219916   3.380368   2.940101   2.913454
    13  H    2.224193   3.881093   3.400211   2.879218   4.343511
    14  H    2.234313   3.173408   2.585987   4.062920   4.670262
    15  H    1.100847   2.624071   3.276760   4.033860   4.688573
    16  H    1.101640   3.421895   3.920778   2.803061   4.315676
    17  H    2.613899   4.148080   4.130791   1.099238   3.481240
    18  H    3.425921   4.200095   4.522432   1.102818   2.752966
    19  H    3.904692   4.545858   4.257970   1.103506   2.692034
    20  H    4.263137   3.421741   3.786176   2.734803   1.103927
    21  H    4.168799   2.532333   2.500065   3.478129   1.102235
    22  H    4.603953   3.825073   3.449238   2.723899   1.101872
    23  H    4.310141   4.219732   2.821653   4.238554   4.197096
    24  H    4.118310   4.562233   3.514015   2.986352   3.657519
    25  H    4.627667   4.063989   2.837539   3.623461   2.942081
    26  C    3.504350   1.362155   2.514788   5.062332   3.862007
    27  H    3.941310   2.088719   3.444786   5.319387   4.095062
    28  C    4.532080   2.531655   3.110270   6.321749   5.039783
    29  C    5.034756   3.100800   2.967656   6.653261   5.306044
    30  C    5.506034   3.739229   4.501033   7.505407   6.273168
    31  C    6.276061   4.485970   4.279545   8.019328   6.672320
    32  H    4.756217   2.868930   2.246952   6.028040   4.661034
    33  C    6.654524   4.946058   5.450520   8.734158   7.461732
    34  H    5.579055   3.984845   5.032367   7.586006   6.450511
    35  C    7.009017   5.272940   5.383867   8.983738   7.658555
    36  H    6.875798   5.174038   4.668722   8.465296   7.118767
    37  H    7.479070   5.873667   6.490620   9.643816   8.403402
    38  C    8.413121   6.762228   6.769928  10.434114   9.106533
    39  H    9.157197   7.364150   7.482408  11.097242   9.617082
    40  H    8.770222   7.114715   6.890566  10.650870   9.290763
    41  H    8.598708   7.197832   7.258864  10.841442   9.720046
                   11         12         13         14         15
    11  C    0.000000
    12  H    4.753479   0.000000
    13  H    2.736069   4.099875   0.000000
    14  H    3.006770   4.214953   1.774673   0.000000
    15  H    4.652133   2.743082   2.970419   2.405725   0.000000
    16  H    4.446891   2.543648   2.383434   2.993362   1.780336
    17  H    3.473402   3.294596   2.213743   3.676057   3.679797
    18  H    4.288106   2.780705   3.822354   4.949085   4.440428
    19  H    3.059204   3.948143   3.321939   4.611784   5.002399
    20  H    4.269894   2.782960   5.043079   5.483918   5.081334
    21  H    3.483090   3.203489   4.845312   4.773498   4.821772
    22  H    3.012479   3.940668   4.611039   5.118268   5.522876
    23  H    1.102015   5.497456   3.020190   2.858701   4.915787
    24  H    1.102563   5.106481   2.561049   3.420304   5.019234
    25  H    1.101516   5.077100   3.777440   3.973785   5.425789
    26  C    5.015633   2.925736   5.147637   4.194800   3.326978
    27  H    5.816430   2.762495   5.815693   5.059659   3.765847
    28  C    5.654935   4.360929   5.950183   4.640863   4.144333
    29  C    5.255773   5.241050   5.963326   4.508704   4.748047
    30  C    7.051371   5.208749   7.120685   5.764132   4.921362
    31  C    6.378310   6.597776   7.101539   5.512990   5.868752
    32  H    4.291730   5.083217   5.350618   4.009795   4.686111
    33  C    7.915871   6.570634   8.089588   6.570931   6.004549
    34  H    7.588609   5.002801   7.429304   6.221236   4.958266
    35  C    7.645247   7.193016   8.100550   6.479967   6.436573
    36  H    6.433275   7.361123   7.394889   5.801617   6.543316
    37  H    8.978366   7.315066   9.022052   7.510398   6.753081
    38  C    8.894117   8.696478   9.388646   7.703958   7.795131
    39  H    9.683161   9.214738  10.256537   8.614679   8.548738
    40  H    8.798992   9.173534   9.508645   7.819059   8.231580
    41  H    9.370890   9.052171   9.587189   7.857192   7.872912
                   16         17         18         19         20
    16  H    0.000000
    17  H    2.202331   0.000000
    18  H    3.104379   1.781044   0.000000
    19  H    3.807852   1.780148   1.780134   0.000000
    20  H    4.556306   3.773851   2.531974   3.024613   0.000000
    21  H    4.846605   4.371066   3.772772   3.722527   1.782897
    22  H    5.006616   3.734005   3.101334   2.454207   1.782077
    23  H    4.983008   4.305131   5.303703   4.106894   5.267775
    24  H    4.445934   3.058213   4.059677   2.573832   4.571202
    25  H    5.241437   4.124307   4.546957   3.265258   4.001984
    26  C    4.450020   5.438684   5.321934   5.831692   4.210888
    27  H    4.715727   5.757218   5.352719   6.150098   4.153493
    28  C    5.556779   6.632042   6.696541   7.020803   5.514656
    29  C    6.127517   6.952853   7.212594   7.190258   5.998085
    30  C    6.449967   7.773259   7.772562   8.280038   6.606396
    31  C    7.365972   8.272430   8.607202   8.529947   7.374079
    32  H    5.849722   6.364801   6.687375   6.440361   5.487164
    33  C    7.630823   8.966879   9.077732   9.461140   7.875484
    34  H    6.405221   7.852095   7.706779   8.440923   6.611727
    35  C    8.056445   9.210313   9.471763   9.595255   8.235506
    36  H    7.972730   8.709440   9.145518   8.865972   7.917465
    37  H    8.400011   9.856983   9.922690  10.415859   8.738484
    38  C    9.456050  10.630495  10.957187  11.015386   9.710819
    39  H   10.191614  11.362072  11.550070  11.686091  10.143128
    40  H    9.840028  10.855186  11.254995  11.140600   9.983332
    41  H    9.599299  10.936176  11.371579  11.478042  10.322910
                   21         22         23         24         25
    21  H    0.000000
    22  H    1.784532   0.000000
    23  H    4.266452   4.027893   0.000000
    24  H    4.177904   3.294745   1.788064   0.000000
    25  H    3.074339   2.471354   1.776217   1.792715   0.000000
    26  C    3.237771   4.834283   5.326781   5.864424   5.174475
    27  H    3.538296   5.145505   6.252594   6.586446   5.922567
    28  C    4.258307   5.894417   5.704016   6.617898   5.794577
    29  C    4.463800   5.960312   5.079163   6.302503   5.338548
    30  C    5.494636   7.185254   7.077311   7.993116   7.210274
    31  C    5.793268   7.270154   6.028894   7.436040   6.448895
    32  H    3.852537   5.175586   4.091672   5.367584   4.315786
    33  C    6.618460   8.300520   7.778399   8.906195   8.060327
    34  H    5.756112   7.444665   7.733137   8.461632   7.769158
    35  C    6.770429   8.362149   7.341018   8.681604   7.751823
    36  H    6.245242   7.579279   5.936661   7.495684   6.457737
    37  H    7.571267   9.280148   8.851552   9.952439   9.135635
    38  C    8.197155   9.759582   8.475311   9.935524   8.989580
    39  H    8.656969  10.288908   9.331655  10.743156   9.700395
    40  H    8.371052   9.838406   8.282958   9.848918   8.849440
    41  H    8.875709  10.413359   8.908783  10.369057   9.580435
                   26         27         28         29         30
    26  C    0.000000
    27  H    1.099173   0.000000
    28  C    1.466692   2.199567   0.000000
    29  C    2.529748   3.457380   1.416533   0.000000
    30  C    2.486619   2.714101   1.417006   2.431273   0.000000
    31  C    3.809715   4.625675   2.449813   1.405295   2.799547
    32  H    2.766834   3.789920   2.176990   1.092243   3.425161
    33  C    3.782028   4.103745   2.452540   2.806290   1.403007
    34  H    2.684178   2.479364   2.172351   3.424078   1.095404
    35  C    4.324523   4.910956   2.858341   2.455445   2.451229
    36  H    4.691061   5.576478   3.437052   2.164336   3.894592
    37  H    4.650078   4.791560   3.440279   3.902214   2.164240
    38  C    5.836431   6.397056   4.370424   3.845576   3.835620
    39  H    6.316325   6.733646   4.878914   4.516271   4.157801
    40  H    6.330204   7.003782   4.881086   4.055410   4.616759
    41  H    6.299376   6.851707   4.864424   4.454047   4.213638
                   31         32         33         34         35
    31  C    0.000000
    32  H    2.164531   0.000000
    33  C    2.420447   3.897588   0.000000
    34  H    3.894896   4.331945   2.169372   0.000000
    35  C    1.410932   3.437721   1.412543   3.440973   0.000000
    36  H    1.095286   2.482538   3.414888   4.989854   2.168249
    37  H    3.416575   4.993352   1.095979   2.490737   2.172176
    38  C    2.549537   4.713074   2.540814   4.709324   1.512173
    39  H    3.312633   5.417034   2.815396   4.897582   2.167027
    40  H    2.652812   4.728183   3.452461   5.581333   2.167703
    41  H    3.237088   5.343892   2.901788   4.987501   2.165250
                   36         37         38         39         40
    36  H    0.000000
    37  H    4.324350   0.000000
    38  C    2.754711   2.742837   0.000000
    39  H    3.573512   2.713506   1.101970   0.000000
    40  H    2.396962   3.806059   1.100817   1.784511   0.000000
    41  H    3.462652   2.881502   1.103027   1.778980   1.782537
                   41
    41  H    0.000000
 Framework group  C1[X(C18H22O)]
 Deg. of freedom   117
                         Standard orientation:                         
 ---------------------------------------------------------------------
 Center     Atomic      Atomic             Coordinates (Angstroms)
 Number     Number       Type             X           Y           Z
 ---------------------------------------------------------------------
      1          8           0       -0.039950    1.571543   -0.391462
      2          6           0       -2.977434   -0.341740   -0.442152
      3          6           0       -2.327667    0.888356    0.271039
      4          6           0       -2.005918   -1.384851    0.198532
      5          6           0       -2.346020    0.442530    1.770009
      6          6           0       -2.177553   -1.112233    1.722343
      7          6           0       -0.661288   -0.795376   -0.166546
      8          6           0       -0.867257    0.694865   -0.144366
      9          6           0       -4.447183   -0.568877   -0.070463
     10          6           0       -2.859777   -0.283953   -1.971694
     11          6           0       -2.884295    2.272375    0.000316
     12          1           0       -2.167797   -2.425223   -0.121196
     13          1           0       -3.304263    0.738031    2.226409
     14          1           0       -1.544719    0.939864    2.339250
     15          1           0       -1.299524   -1.452874    2.292336
     16          1           0       -3.062860   -1.630906    2.123368
     17          1           0       -4.630722   -0.554017    1.013242
     18          1           0       -4.783657   -1.544602   -0.458991
     19          1           0       -5.079738    0.209258   -0.531012
     20          1           0       -3.204112   -1.235202   -2.413524
     21          1           0       -1.824844   -0.110307   -2.308863
     22          1           0       -3.491843    0.523088   -2.375797
     23          1           0       -2.294362    3.030877    0.539843
     24          1           0       -3.932708    2.344915    0.333803
     25          1           0       -2.834295    2.517225   -1.072478
     26          6           0        0.535201   -1.365117   -0.481626
     27          1           0        0.485171   -2.384279   -0.890266
     28          6           0        1.867049   -0.779789   -0.295185
     29          6           0        2.095223    0.618229   -0.301922
     30          6           0        2.981293   -1.639167   -0.128346
     31          6           0        3.389947    1.130342   -0.111433
     32          1           0        1.266949    1.303159   -0.496415
     33          6           0        4.268583   -1.117683    0.070075
     34          1           0        2.826047   -2.723354   -0.146915
     35          6           0        4.495294    0.276432    0.088009
     36          1           0        3.547360    2.214066   -0.131763
     37          1           0        5.113413   -1.802638    0.205231
     38          6           0        5.886155    0.827035    0.309385
     39          1           0        6.604315    0.382717   -0.398547
     40          1           0        5.905819    1.919927    0.179008
     41          1           0        6.239843    0.599666    1.329129
 ---------------------------------------------------------------------
 Rotational constants (GHZ):           0.9743522           0.2013402           0.1888970
   405 basis functions,   696 primitive gaussians,   405 cartesian basis functions
    69 alpha electrons       69 beta electrons
       nuclear repulsion energy      1437.8369900051 Hartrees.
 NAtoms=   41 NActive=   41 NUniq=   41 SFac= 1.00D+00 NAtFMM=   60 NAOKFM=F Big=F
 ExpMin= 4.38D-02 ExpMax= 5.48D+03 ExpMxC= 8.25D+02 IAcc=3 IRadAn=         5 AccDes= 0.00D+00
 Harris functional with IExCor=  402 and IRadAn=       5 diagonalized for initial guess.
 HarFok:  IExCor=  402 AccDes= 0.00D+00 IRadAn=         5 IDoV= 1 UseB2=F ITyADJ=14
 ICtDFT=  3500011 ScaDFX=  1.000000  1.000000  1.000000  1.000000
 FoFCou: FMM=F IPFlag=           0 FMFlag=      100000 FMFlg1=           0
         NFxFlg=           0 DoJE=T BraDBF=F KetDBF=T FulRan=T
         wScrn=  0.000000 ICntrl=       500 IOpCl=  0 I1Cent=   200000004 NGrid=           0
         NMat0=    1 NMatS0=      1 NMatT0=    0 NMatD0=    1 NMtDS0=    0 NMtDT0=    0
 Petite list used in FoFCou.
 SCF Done:  E(RB3LYP) =  -774.349051856     A.U. after   17 cycles
            NFock= 17  Conv=0.40D-08     -V/T= 2.0096

 **********************************************************************

            Population analysis using the SCF Density.

 **********************************************************************

 Orbital symmetries:
       Occupied  (A) (A) (A) (A) (A) (A) (A) (A) (A) (A) (A) (A)
                 (A) (A) (A) (A) (A) (A) (A) (A) (A) (A) (A) (A)
                 (A) (A) (A) (A) (A) (A) (A) (A) (A) (A) (A) (A)
                 (A) (A) (A) (A) (A) (A) (A) (A) (A) (A) (A) (A)
                 (A) (A) (A) (A) (A) (A) (A) (A) (A) (A) (A) (A)
                 (A) (A) (A) (A) (A) (A) (A) (A) (A)
       Virtual   (A) (A) (A) (A) (A) (A) (A) (A) (A) (A) (A) (A)
                 (A) (A) (A) (A) (A) (A) (A) (A) (A) (A) (A) (A)
                 (A) (A) (A) (A) (A) (A) (A) (A) (A) (A) (A) (A)
                 (A) (A) (A) (A) (A) (A) (A) (A) (A) (A) (A) (A)
                 (A) (A) (A) (A) (A) (A) (A) (A) (A) (A) (A) (A)
                 (A) (A) (A) (A) (A) (A) (A) (A) (A) (A) (A) (A)
                 (A) (A) (A) (A) (A) (A) (A) (A) (A) (A) (A) (A)
                 (A) (A) (A) (A) (A) (A) (A) (A) (A) (A) (A) (A)
                 (A) (A) (A) (A) (A) (A) (A) (A) (A) (A) (A) (A)
                 (A) (A) (A) (A) (A) (A) (A) (A) (A) (A) (A) (A)
                 (A) (A) (A) (A) (A) (A) (A) (A) (A) (A) (A) (A)
                 (A) (A) (A) (A) (A) (A) (A) (A) (A) (A) (A) (A)
                 (A) (A) (A) (A) (A) (A) (A) (A) (A) (A) (A) (A)
                 (A) (A) (A) (A) (A) (A) (A) (A) (A) (A) (A) (A)
                 (A) (A) (A) (A) (A) (A) (A) (A) (A) (A) (A) (A)
                 (A) (A) (A) (A) (A) (A) (A) (A) (A) (A) (A) (A)
                 (A) (A) (A) (A) (A) (A) (A) (A) (A) (A) (A) (A)
                 (A) (A) (A) (A) (A) (A) (A) (A) (A) (A) (A) (A)
                 (A) (A) (A) (A) (A) (A) (A) (A) (A) (A) (A) (A)
                 (A) (A) (A) (A) (A) (A) (A) (A) (A) (A) (A) (A)
                 (A) (A) (A) (A) (A) (A) (A) (A) (A) (A) (A) (A)
                 (A) (A) (A) (A) (A) (A) (A) (A) (A) (A) (A) (A)
                 (A) (A) (A) (A) (A) (A) (A) (A) (A) (A) (A) (A)
                 (A) (A) (A) (A) (A) (A) (A) (A) (A) (A) (A) (A)
                 (A) (A) (A) (A) (A) (A) (A) (A) (A) (A) (A) (A)
                 (A) (A) (A) (A) (A) (A) (A) (A) (A) (A) (A) (A)
                 (A) (A) (A) (A) (A) (A) (A) (A) (A) (A) (A) (A)
                 (A) (A) (A) (A) (A) (A) (A) (A) (A) (A)
 The electronic state is 1-A.
 Alpha  occ. eigenvalues --  -19.14909 -10.27832 -10.21698 -10.21055 -10.20728
 Alpha  occ. eigenvalues --  -10.20614 -10.20216 -10.19961 -10.19856 -10.19855
 Alpha  occ. eigenvalues --  -10.19775 -10.19441 -10.18793 -10.18774 -10.18473
 Alpha  occ. eigenvalues --  -10.18432 -10.18327 -10.17853 -10.15188  -1.05686
 Alpha  occ. eigenvalues --   -0.89791  -0.85001  -0.80366  -0.77233  -0.76650
 Alpha  occ. eigenvalues --   -0.75148  -0.73252  -0.71081  -0.68575  -0.67568
 Alpha  occ. eigenvalues --   -0.66345  -0.61107  -0.61013  -0.59097  -0.56663
 Alpha  occ. eigenvalues --   -0.53821  -0.52137  -0.50681  -0.48722  -0.47880
 Alpha  occ. eigenvalues --   -0.47203  -0.46259  -0.45340  -0.43418  -0.43248
 Alpha  occ. eigenvalues --   -0.42411  -0.41710  -0.41477  -0.40525  -0.40453
 Alpha  occ. eigenvalues --   -0.39454  -0.39238  -0.38785  -0.38645  -0.37892
 Alpha  occ. eigenvalues --   -0.37026  -0.35735  -0.35530  -0.35116  -0.34146
 Alpha  occ. eigenvalues --   -0.34121  -0.33660  -0.32513  -0.31895  -0.30664
 Alpha  occ. eigenvalues --   -0.27890  -0.24098  -0.22376  -0.21636
 Alpha virt. eigenvalues --   -0.07525  -0.00596  -0.00352  -0.00059   0.00924
 Alpha virt. eigenvalues --    0.01308   0.01383   0.02106   0.02850   0.03621
 Alpha virt. eigenvalues --    0.03753   0.04024   0.04183   0.04554   0.04975
 Alpha virt. eigenvalues --    0.05521   0.06115   0.06446   0.06722   0.07064
 Alpha virt. eigenvalues --    0.07195   0.07750   0.08059   0.08155   0.08429
 Alpha virt. eigenvalues --    0.09369   0.09562   0.09889   0.10143   0.10983
 Alpha virt. eigenvalues --    0.11153   0.11458   0.11878   0.12448   0.12886
 Alpha virt. eigenvalues --    0.13560   0.13990   0.14172   0.14496   0.15069
 Alpha virt. eigenvalues --    0.15393   0.15592   0.15806   0.16075   0.16388
 Alpha virt. eigenvalues --    0.16756   0.17008   0.17200   0.17662   0.18024
 Alpha virt. eigenvalues --    0.18172   0.18281   0.18743   0.19375   0.19513
 Alpha virt. eigenvalues --    0.19900   0.20332   0.20376   0.21131   0.21340
 Alpha virt. eigenvalues --    0.21382   0.21677   0.22015   0.22607   0.22818
 Alpha virt. eigenvalues --    0.23298   0.23811   0.24080   0.24471   0.24691
 Alpha virt. eigenvalues --    0.24911   0.25170   0.25738   0.26249   0.26586
 Alpha virt. eigenvalues --    0.26950   0.27093   0.27338   0.27731   0.28270
 Alpha virt. eigenvalues --    0.28377   0.28885   0.29084   0.29533   0.29777
 Alpha virt. eigenvalues --    0.30168   0.30603   0.30874   0.31006   0.31378
 Alpha virt. eigenvalues --    0.32066   0.32825   0.33406   0.33633   0.34063
 Alpha virt. eigenvalues --    0.34376   0.34848   0.35157   0.35981   0.36433
 Alpha virt. eigenvalues --    0.36610   0.37253   0.37986   0.38869   0.39581
 Alpha virt. eigenvalues --    0.40012   0.40500   0.40792   0.41415   0.41826
 Alpha virt. eigenvalues --    0.42973   0.44218   0.45127   0.46095   0.46691
 Alpha virt. eigenvalues --    0.48301   0.48909   0.49902   0.52001   0.56484
 Alpha virt. eigenvalues --    0.59245   0.62024   0.67361   0.67889   0.68368
 Alpha virt. eigenvalues --    0.68772   0.69545   0.70582   0.70897   0.71088
 Alpha virt. eigenvalues --    0.71408   0.72214   0.72821   0.73831   0.74172
 Alpha virt. eigenvalues --    0.74675   0.75060   0.75709   0.76098   0.76659
 Alpha virt. eigenvalues --    0.77097   0.77442   0.78206   0.79170   0.80229
 Alpha virt. eigenvalues --    0.80366   0.81810   0.82780   0.83428   0.83822
 Alpha virt. eigenvalues --    0.84451   0.85105   0.86311   0.86961   0.87309
 Alpha virt. eigenvalues --    0.88214   0.88657   0.89659   0.90687   0.91335
 Alpha virt. eigenvalues --    0.92243   0.92999   0.94185   0.94636   0.95565
 Alpha virt. eigenvalues --    0.96699   0.97518   0.97783   0.99574   0.99827
 Alpha virt. eigenvalues --    1.01249   1.01524   1.02260   1.03712   1.04586
 Alpha virt. eigenvalues --    1.05583   1.06406   1.07489   1.07821   1.08442
 Alpha virt. eigenvalues --    1.10216   1.11875   1.12332   1.13016   1.14326
 Alpha virt. eigenvalues --    1.15539   1.15646   1.17758   1.17948   1.18146
 Alpha virt. eigenvalues --    1.18849   1.20019   1.21207   1.22148   1.22613
 Alpha virt. eigenvalues --    1.23179   1.23687   1.26851   1.27576   1.30179
 Alpha virt. eigenvalues --    1.30397   1.33336   1.34471   1.35721   1.36935
 Alpha virt. eigenvalues --    1.38163   1.39199   1.40502   1.40871   1.42285
 Alpha virt. eigenvalues --    1.43889   1.45347   1.46572   1.47444   1.49491
 Alpha virt. eigenvalues --    1.50246   1.51342   1.51988   1.53856   1.54980
 Alpha virt. eigenvalues --    1.56308   1.58181   1.63060   1.64957   1.67421
 Alpha virt. eigenvalues --    1.68830   1.72276   1.73473   1.75143   1.76107
 Alpha virt. eigenvalues --    1.78444   1.80103   1.82322   1.83624   1.84290
 Alpha virt. eigenvalues --    1.84917   1.85931   1.87547   1.88215   1.89302
 Alpha virt. eigenvalues --    1.90089   1.91085   1.91493   1.93281   1.94497
 Alpha virt. eigenvalues --    1.95022   1.96063   1.96595   1.98465   1.99035
 Alpha virt. eigenvalues --    2.01936   2.02850   2.05683   2.06597   2.08343
 Alpha virt. eigenvalues --    2.08947   2.09152   2.11957   2.13018   2.14073
 Alpha virt. eigenvalues --    2.14753   2.16716   2.17318   2.18458   2.19325
 Alpha virt. eigenvalues --    2.19874   2.21134   2.24157   2.25156   2.25390
 Alpha virt. eigenvalues --    2.27123   2.29600   2.30708   2.31623   2.32248
 Alpha virt. eigenvalues --    2.33008   2.33572   2.34835   2.36436   2.38334
 Alpha virt. eigenvalues --    2.39842   2.40061   2.41566   2.43912   2.45230
 Alpha virt. eigenvalues --    2.48166   2.48893   2.49878   2.53717   2.55243
 Alpha virt. eigenvalues --    2.57737   2.59608   2.63407   2.63856   2.66659
 Alpha virt. eigenvalues --    2.67020   2.68763   2.72774   2.77492   2.78277
 Alpha virt. eigenvalues --    2.80407   2.81848   2.82761   2.84012   2.86685
 Alpha virt. eigenvalues --    2.86975   2.88774   2.90354   2.95671   3.02283
 Alpha virt. eigenvalues --    3.08298   3.15578   3.23142   3.29980   3.40698
 Alpha virt. eigenvalues --    4.23153   4.26630   4.28169   4.31857   4.33545
 Alpha virt. eigenvalues --    4.34569   4.38770   4.39535   4.41766   4.44128
 Alpha virt. eigenvalues --    4.46931   4.49840   4.53143   4.62859   4.66340
 Alpha virt. eigenvalues --    4.75271   4.83106   4.86734   5.03720
          Condensed to atoms (all electrons):
 Mulliken charges:
               1
     1  O   -0.472582
     2  C   -0.607363
     3  C    0.475507
     4  C    0.076344
     5  C   -0.583230
     6  C   -0.527436
     7  C    0.082289
     8  C   -0.583827
     9  C   -0.431884
    10  C   -0.677707
    11  C   -0.327636
    12  H    0.187747
    13  H    0.217961
    14  H    0.222419
    15  H    0.216637
    16  H    0.212073
    17  H    0.217979
    18  H    0.216279
    19  H    0.218692
    20  H    0.211440
    21  H    0.231709
    22  H    0.216466
    23  H    0.237097
    24  H    0.213699
    25  H    0.229422
    26  C   -0.151324
    27  H    0.182015
    28  C    0.895726
    29  C   -0.389177
    30  C   -0.329029
    31  C   -0.591654
    32  H    0.323714
    33  C   -0.193228
    34  H    0.172210
    35  C    0.347451
    36  H    0.169498
    37  H    0.172804
    38  C   -0.725980
    39  H    0.217015
    40  H    0.205538
    41  H    0.222325
 Sum of Mulliken charges =  -0.00000
 Mulliken charges with hydrogens summed into heavy atoms:
               1
     1  O   -0.472582
     2  C   -0.607363
     3  C    0.475507
     4  C    0.264092
     5  C   -0.142850
     6  C   -0.098727
     7  C    0.082289
     8  C   -0.583827
     9  C    0.221066
    10  C   -0.018092
    11  C    0.352582
    26  C    0.030691
    28  C    0.895726
    29  C   -0.065463
    30  C   -0.156818
    31  C   -0.422156
    33  C   -0.020425
    35  C    0.347451
    38  C   -0.081102
 Electronic spatial extent (au):  <R**2>=           6103.3470
 Charge=             -0.0000 electrons
 Dipole moment (field-independent basis, Debye):
    X=             -2.0079    Y=             -1.7708    Z=              0.7113  Tot=              2.7701
 Calling FoFJK, ICntrl=      2127 FMM=F ISym2X=0 I1Cent= 0 IOpClX= 0 NMat=1 NMatS=1 NMatT=0.

 GradGradGradGradGradGradGradGradGradGradGradGradGradGradGradGradGradGrad
 FormGI is forming the generalized inverse of G from B-inverse, IUseBI=4.
 Internal  Forces:  Max     0.298135794 RMS     0.037056301
 Step number   1 out of a maximum of  200
 All quantities printed in internal units (Hartrees-Bohrs-Radians)
 Mixed Optimization -- RFO/linear search
 Second derivative matrix not updated -- first step.
 ITU=  0
     Eigenvalues ---    0.00301   0.00330   0.00367   0.00498   0.00553
     Eigenvalues ---    0.00605   0.00982   0.01207   0.01385   0.01582
     Eigenvalues ---    0.01671   0.01724   0.01886   0.01891   0.01937
     Eigenvalues ---    0.01945   0.01967   0.01974   0.01988   0.01998
     Eigenvalues ---    0.02343   0.02589   0.03253   0.03687   0.03978
     Eigenvalues ---    0.04190   0.04530   0.04780   0.05211   0.05270
     Eigenvalues ---    0.05343   0.05414   0.05617   0.05635   0.05681
     Eigenvalues ---    0.05774   0.06043   0.06634   0.06980   0.07058
     Eigenvalues ---    0.07114   0.07180   0.07634   0.09011   0.09322
     Eigenvalues ---    0.10974   0.12031   0.13028   0.15985   0.15996
     Eigenvalues ---    0.15999   0.15999   0.16000   0.16000   0.16000
     Eigenvalues ---    0.16000   0.16000   0.16000   0.16000   0.16000
     Eigenvalues ---    0.16000   0.16000   0.16000   0.16000   0.16000
     Eigenvalues ---    0.17914   0.20864   0.21998   0.22002   0.22954
     Eigenvalues ---    0.23120   0.23998   0.24854   0.24993   0.24994
     Eigenvalues ---    0.24998   0.25000   0.25069   0.26751   0.28050
     Eigenvalues ---    0.28953   0.29154   0.29341   0.30725   0.30743
     Eigenvalues ---    0.31133   0.33252   0.33297   0.33350   0.33372
     Eigenvalues ---    0.33400   0.33436   0.33460   0.33465   0.33476
     Eigenvalues ---    0.33489   0.33501   0.33509   0.33515   0.33589
     Eigenvalues ---    0.33592   0.33642   0.33766   0.33774   0.34131
     Eigenvalues ---    0.34196   0.34209   0.34555   0.36139   0.40043
     Eigenvalues ---    0.40220   0.43253   0.43381   0.44111   0.44962
     Eigenvalues ---    0.52514   0.90891
 Linear search not attempted -- first point.
 Maximum step size (   0.100) exceeded in Quadratic search.
    -- Step size scaled by   0.125
 Iteration  1 RMS(Cart)=  0.10370992 RMS(Int)=  0.00144739
 Iteration  2 RMS(Cart)=  0.00509790 RMS(Int)=  0.00000850
 Iteration  3 RMS(Cart)=  0.00001413 RMS(Int)=  0.00000768
 Iteration  4 RMS(Cart)=  0.00000000 RMS(Int)=  0.00000768
 Variable       Old X    -DE/DX   Delta X   Delta X   Delta X     New X
                                 (Linear)    (Quad)   (Total)
    R1        2.32525  -0.03831   0.00000  -0.00344  -0.00344   2.32181
    R2        2.95425  -0.00738   0.00000  -0.00160  -0.00160   2.95265
    R3        2.95330  -0.00760   0.00000  -0.00167  -0.00168   2.95162
    R4        2.89684   0.00385   0.00000   0.00062   0.00062   2.89746
    R5        2.90101   0.00364   0.00000   0.00059   0.00059   2.90160
    R6        2.95548  -0.00307   0.00000  -0.00050  -0.00050   2.95498
    R7        2.89245  -0.00728   0.00000  -0.00082  -0.00082   2.89163
    R8        2.86506   0.00249   0.00000   0.00040   0.00040   2.86546
    R9        2.94323   0.00150   0.00000   0.00023   0.00023   2.94346
   R10        2.85892   0.02444   0.00000   0.00377   0.00378   2.86270
   R11        2.07939  -0.00324   0.00000  -0.00049  -0.00049   2.07889
   R12        2.95665  -0.00988   0.00000  -0.00166  -0.00167   2.95497
   R13        2.08200  -0.00398   0.00000  -0.00061  -0.00061   2.08139
   R14        2.08167  -0.00391   0.00000  -0.00060  -0.00060   2.08107
   R15        2.08030  -0.00444   0.00000  -0.00068  -0.00068   2.07962
   R16        2.08180  -0.00441   0.00000  -0.00068  -0.00068   2.08112
   R17        2.84323   0.05649   0.00000   0.00932   0.00933   2.85256
   R18        2.57410   0.09479   0.00000   0.01177   0.01177   2.58587
   R19        2.07726  -0.00466   0.00000  -0.00071  -0.00071   2.07655
   R20        2.08402  -0.00320   0.00000  -0.00049  -0.00049   2.08353
   R21        2.08532  -0.00425   0.00000  -0.00065  -0.00065   2.08467
   R22        2.08612  -0.00404   0.00000  -0.00062  -0.00062   2.08550
   R23        2.08292  -0.00554   0.00000  -0.00085  -0.00085   2.08207
   R24        2.08224  -0.00346   0.00000  -0.00053  -0.00053   2.08171
   R25        2.08251  -0.00405   0.00000  -0.00062  -0.00062   2.08188
   R26        2.08354  -0.00403   0.00000  -0.00062  -0.00062   2.08292
   R27        2.08156  -0.00387   0.00000  -0.00059  -0.00059   2.08097
   R28        2.07714  -0.00318   0.00000  -0.00049  -0.00049   2.07665
   R29        2.77165   0.06512   0.00000   0.00967   0.00967   2.78131
   R30        2.67686  -0.00238   0.00000  -0.00027  -0.00027   2.67659
   R31        2.67775   0.00993   0.00000   0.00140   0.00140   2.67916
   R32        2.65562  -0.00200   0.00000  -0.00025  -0.00025   2.65537
   R33        2.06404  -0.04036   0.00000  -0.00611  -0.00611   2.05793
   R34        2.65130  -0.01451   0.00000  -0.00196  -0.00196   2.64934
   R35        2.07001  -0.00447   0.00000  -0.00068  -0.00068   2.06933
   R36        2.66628  -0.01991   0.00000  -0.00274  -0.00275   2.66353
   R37        2.06979  -0.00438   0.00000  -0.00067  -0.00067   2.06912
   R38        2.66932  -0.02188   0.00000  -0.00304  -0.00304   2.66628
   R39        2.07110  -0.00498   0.00000  -0.00076  -0.00076   2.07034
   R40        2.85759  -0.00013   0.00000  -0.00002  -0.00002   2.85757
   R41        2.08242  -0.00292   0.00000  -0.00045  -0.00045   2.08197
   R42        2.08024  -0.00384   0.00000  -0.00059  -0.00059   2.07966
   R43        2.08442  -0.00313   0.00000  -0.00048  -0.00048   2.08394
    A1        1.65067  -0.00368   0.00000  -0.00105  -0.00106   1.64961
    A2        1.98720  -0.00136   0.00000  -0.00006  -0.00006   1.98714
    A3        1.97476   0.00580   0.00000   0.00115   0.00115   1.97591
    A4        1.97983   0.00372   0.00000   0.00080   0.00081   1.98063
    A5        1.96702   0.00058   0.00000   0.00026   0.00026   1.96728
    A6        1.89720  -0.00441   0.00000  -0.00098  -0.00098   1.89623
    A7        1.78039   0.00632   0.00000   0.00145   0.00146   1.78185
    A8        1.74496   0.00519   0.00000   0.00090   0.00089   1.74585
    A9        2.07628  -0.00622   0.00000  -0.00132  -0.00132   2.07496
   A10        1.80830  -0.00052   0.00000  -0.00019  -0.00019   1.80811
   A11        2.01203  -0.00143   0.00000  -0.00034  -0.00034   2.01169
   A12        2.00120  -0.00155   0.00000  -0.00016  -0.00015   2.00104
   A13        1.78826  -0.00215   0.00000  -0.00000  -0.00000   1.78826
   A14        1.76554   0.02622   0.00000   0.00518   0.00518   1.77072
   A15        2.00479  -0.00612   0.00000  -0.00134  -0.00134   2.00345
   A16        1.83987   0.00155   0.00000   0.00025   0.00025   1.84012
   A17        2.01924   0.00001   0.00000  -0.00032  -0.00032   2.01892
   A18        2.01422  -0.01500   0.00000  -0.00281  -0.00281   2.01140
   A19        1.82638  -0.00632   0.00000  -0.00133  -0.00133   1.82504
   A20        1.90793   0.00028   0.00000   0.00007   0.00007   1.90800
   A21        1.93697   0.00434   0.00000   0.00089   0.00089   1.93786
   A22        1.95282  -0.00074   0.00000  -0.00002  -0.00001   1.95280
   A23        1.96715   0.00411   0.00000   0.00071   0.00070   1.96786
   A24        1.87288  -0.00162   0.00000  -0.00031  -0.00031   1.87258
   A25        1.78811   0.00337   0.00000   0.00033   0.00034   1.78845
   A26        1.94392  -0.00295   0.00000  -0.00039  -0.00039   1.94352
   A27        1.94153   0.00079   0.00000   0.00017   0.00017   1.94170
   A28        1.95800   0.00509   0.00000   0.00096   0.00096   1.95896
   A29        1.95007  -0.00645   0.00000  -0.00101  -0.00101   1.94905
   A30        1.88262   0.00017   0.00000  -0.00005  -0.00005   1.88257
   A31        1.83454  -0.04228   0.00000  -0.00766  -0.00765   1.82689
   A32        2.30979  -0.20936   0.00000  -0.03563  -0.03563   2.27415
   A33        2.13878   0.25154   0.00000   0.04327   0.04326   2.18204
   A34        2.22175  -0.10438   0.00000  -0.01788  -0.01788   2.20386
   A35        2.22772   0.09101   0.00000   0.01556   0.01556   2.24328
   A36        1.83364   0.01347   0.00000   0.00235   0.00235   1.83598
   A37        1.97918   0.00153   0.00000   0.00030   0.00030   1.97948
   A38        1.91580   0.00071   0.00000   0.00014   0.00014   1.91593
   A39        1.92188   0.00162   0.00000   0.00032   0.00032   1.92220
   A40        1.88425  -0.00127   0.00000  -0.00025  -0.00025   1.88400
   A41        1.88201  -0.00158   0.00000  -0.00030  -0.00030   1.88170
   A42        1.87754  -0.00125   0.00000  -0.00025  -0.00025   1.87730
   A43        1.92030   0.00080   0.00000   0.00015   0.00015   1.92045
   A44        1.96348   0.00224   0.00000   0.00044   0.00044   1.96393
   A45        1.92731   0.00112   0.00000   0.00022   0.00022   1.92753
   A46        1.88199  -0.00149   0.00000  -0.00029  -0.00029   1.88170
   A47        1.88118  -0.00127   0.00000  -0.00026  -0.00026   1.88092
   A48        1.88707  -0.00164   0.00000  -0.00032  -0.00032   1.88676
   A49        1.92235   0.00104   0.00000   0.00020   0.00020   1.92255
   A50        1.93388   0.00102   0.00000   0.00020   0.00020   1.93408
   A51        1.93923   0.00133   0.00000   0.00026   0.00026   1.93949
   A52        1.89195  -0.00109   0.00000  -0.00021  -0.00021   1.89174
   A53        1.87499  -0.00114   0.00000  -0.00022  -0.00022   1.87477
   A54        1.89982  -0.00131   0.00000  -0.00026  -0.00026   1.89956
   A55        2.01954  -0.14464   0.00000  -0.02577  -0.02578   1.99376
   A56        2.21592   0.29814   0.00000   0.05320   0.05320   2.26912
   A57        2.04724  -0.15447   0.00000  -0.02769  -0.02769   2.01954
   A58        2.14068   0.17274   0.00000   0.02954   0.02954   2.17022
   A59        2.07942  -0.12789   0.00000  -0.02192  -0.02192   2.05750
   A60        2.06286  -0.04491   0.00000  -0.00764  -0.00763   2.05522
   A61        2.10298   0.01513   0.00000   0.00272   0.00272   2.10570
   A62        2.09161   0.00371   0.00000   0.00084   0.00084   2.09245
   A63        2.08780  -0.01894   0.00000  -0.00358  -0.00358   2.08421
   A64        2.10914   0.03048   0.00000   0.00540   0.00540   2.11454
   A65        2.07925  -0.01386   0.00000  -0.00243  -0.00243   2.07682
   A66        2.09476  -0.01664   0.00000  -0.00297  -0.00297   2.09179
   A67        2.11810   0.01204   0.00000   0.00205   0.00205   2.12015
   A68        2.08342  -0.00638   0.00000  -0.00109  -0.00109   2.08233
   A69        2.08157  -0.00568   0.00000  -0.00096  -0.00096   2.08062
   A70        2.11285  -0.00023   0.00000  -0.00021  -0.00021   2.11264
   A71        2.08566  -0.00029   0.00000   0.00002   0.00002   2.08568
   A72        2.08465   0.00053   0.00000   0.00018   0.00019   2.08483
   A73        2.05984  -0.01262   0.00000  -0.00235  -0.00235   2.05749
   A74        2.11870   0.00731   0.00000   0.00135   0.00135   2.12005
   A75        2.10464   0.00530   0.00000   0.00100   0.00100   2.10564
   A76        1.93753   0.00148   0.00000   0.00029   0.00029   1.93782
   A77        1.93969   0.00033   0.00000   0.00006   0.00006   1.93975
   A78        1.93394   0.00113   0.00000   0.00022   0.00022   1.93416
   A79        1.88870  -0.00090   0.00000  -0.00017  -0.00017   1.88852
   A80        1.87741  -0.00139   0.00000  -0.00027  -0.00027   1.87714
   A81        1.88432  -0.00081   0.00000  -0.00016  -0.00016   1.88416
    D1       -0.91766  -0.00276   0.00000  -0.00055  -0.00055  -0.91821
    D2        0.93867  -0.00033   0.00000  -0.00014  -0.00014   0.93852
    D3        3.13013  -0.00196   0.00000  -0.00043  -0.00043   3.12970
    D4        1.14432  -0.00096   0.00000  -0.00022  -0.00022   1.14410
    D5        3.00065   0.00147   0.00000   0.00018   0.00018   3.00083
    D6       -1.09108  -0.00016   0.00000  -0.00011  -0.00011  -1.09118
    D7       -2.96114  -0.00328   0.00000  -0.00064  -0.00065  -2.96179
    D8       -1.10481  -0.00086   0.00000  -0.00024  -0.00024  -1.10506
    D9        1.08665  -0.00249   0.00000  -0.00053  -0.00053   1.08612
   D10        0.96345  -0.00016   0.00000   0.00012   0.00012   0.96356
   D11       -0.93422  -0.00907   0.00000  -0.00170  -0.00170  -0.93592
   D12       -3.11566  -0.00549   0.00000  -0.00111  -0.00111  -3.11677
   D13       -1.10453   0.00215   0.00000   0.00049   0.00049  -1.10404
   D14       -3.00219  -0.00676   0.00000  -0.00133  -0.00133  -3.00353
   D15        1.09955  -0.00318   0.00000  -0.00074  -0.00074   1.09881
   D16        3.01327   0.00467   0.00000   0.00096   0.00096   3.01423
   D17        1.11561  -0.00424   0.00000  -0.00086  -0.00086   1.11474
   D18       -1.06583  -0.00066   0.00000  -0.00027  -0.00027  -1.06610
   D19       -0.85369   0.00198   0.00000   0.00049   0.00050  -0.85319
   D20       -2.96260   0.00206   0.00000   0.00051   0.00052  -2.96208
   D21        1.25672   0.00217   0.00000   0.00054   0.00054   1.25726
   D22        1.00799  -0.00118   0.00000  -0.00037  -0.00037   1.00762
   D23       -1.10092  -0.00110   0.00000  -0.00035  -0.00035  -1.10127
   D24        3.11840  -0.00099   0.00000  -0.00033  -0.00033   3.11808
   D25       -3.07232  -0.00114   0.00000  -0.00020  -0.00020  -3.07252
   D26        1.10196  -0.00106   0.00000  -0.00018  -0.00019   1.10178
   D27       -0.96191  -0.00094   0.00000  -0.00016  -0.00016  -0.96206
   D28        3.00317   0.00019   0.00000  -0.00013  -0.00013   3.00305
   D29        0.90449   0.00005   0.00000  -0.00016  -0.00016   0.90433
   D30       -1.20557  -0.00018   0.00000  -0.00021  -0.00021  -1.20578
   D31        1.15598   0.00114   0.00000   0.00038   0.00038   1.15636
   D32       -0.94270   0.00099   0.00000   0.00034   0.00034  -0.94236
   D33       -3.05276   0.00077   0.00000   0.00029   0.00029  -3.05247
   D34       -1.05429  -0.00075   0.00000  -0.00011  -0.00011  -1.05440
   D35        3.13022  -0.00090   0.00000  -0.00015  -0.00015   3.13007
   D36        1.02016  -0.00112   0.00000  -0.00020  -0.00020   1.01996
   D37        0.55629  -0.00074   0.00000  -0.00003  -0.00003   0.55626
   D38       -1.53797   0.00350   0.00000   0.00069   0.00069  -1.53728
   D39        2.68280   0.00269   0.00000   0.00049   0.00048   2.68329
   D40       -1.25046  -0.00803   0.00000  -0.00137  -0.00137  -1.25183
   D41        2.93846  -0.00379   0.00000  -0.00065  -0.00064   2.93782
   D42        0.87605  -0.00459   0.00000  -0.00085  -0.00085   0.87520
   D43        2.83200  -0.00473   0.00000  -0.00081  -0.00081   2.83120
   D44        0.73774  -0.00049   0.00000  -0.00008  -0.00008   0.73766
   D45       -1.32467  -0.00130   0.00000  -0.00029  -0.00029  -1.32496
   D46        2.53443  -0.01409   0.00000  -0.00346  -0.00345   2.53098
   D47       -0.61969  -0.00498   0.00000  -0.00120  -0.00120  -0.62090
   D48       -1.91498  -0.00598   0.00000  -0.00170  -0.00169  -1.91667
   D49        1.21408   0.00313   0.00000   0.00056   0.00056   1.21464
   D50        0.29261  -0.00918   0.00000  -0.00237  -0.00237   0.29025
   D51       -2.86152  -0.00007   0.00000  -0.00011  -0.00012  -2.86163
   D52       -3.09878   0.00042   0.00000   0.00018   0.00018  -3.09860
   D53        1.09113   0.00044   0.00000   0.00018   0.00019   1.09132
   D54       -1.02323   0.00051   0.00000   0.00020   0.00020  -1.02303
   D55        1.06163  -0.00185   0.00000  -0.00044  -0.00044   1.06119
   D56       -1.03165  -0.00182   0.00000  -0.00043  -0.00043  -1.03208
   D57        3.13718  -0.00175   0.00000  -0.00041  -0.00041   3.13676
   D58       -1.03640   0.00128   0.00000   0.00022   0.00022  -1.03618
   D59       -3.12967   0.00130   0.00000   0.00023   0.00023  -3.12945
   D60        1.03915   0.00137   0.00000   0.00024   0.00024   1.03939
   D61       -0.64097  -0.00434   0.00000  -0.00099  -0.00100  -0.64197
   D62       -2.73734  -0.01087   0.00000  -0.00213  -0.00213  -2.73947
   D63        1.44493  -0.00961   0.00000  -0.00191  -0.00191   1.44302
   D64        1.19960   0.02374   0.00000   0.00469   0.00468   1.20428
   D65       -0.89676   0.01721   0.00000   0.00355   0.00355  -0.89322
   D66       -2.99769   0.01847   0.00000   0.00377   0.00377  -2.99392
   D67       -2.83566   0.00504   0.00000   0.00091   0.00090  -2.83476
   D68        1.35116  -0.00148   0.00000  -0.00023  -0.00023   1.35093
   D69       -0.74976  -0.00023   0.00000  -0.00001  -0.00001  -0.74978
   D70        0.58321  -0.00252   0.00000  -0.00050  -0.00049   0.58272
   D71       -2.54534   0.00357   0.00000   0.00111   0.00107  -2.54427
   D72       -1.27400  -0.00971   0.00000  -0.00236  -0.00235  -1.27635
   D73        1.88064  -0.00362   0.00000  -0.00075  -0.00079   1.87985
   D74        2.75828   0.00006   0.00000  -0.00007  -0.00005   2.75822
   D75       -0.37026   0.00615   0.00000   0.00154   0.00150  -0.36876
   D76        0.04921   0.00351   0.00000   0.00066   0.00067   0.04988
   D77        2.13576   0.00448   0.00000   0.00087   0.00087   2.13662
   D78       -2.03072   0.00369   0.00000   0.00076   0.00075  -2.02996
   D79        2.11318  -0.00031   0.00000  -0.00006  -0.00005   2.11313
   D80       -2.08345   0.00067   0.00000   0.00015   0.00015  -2.08331
   D81        0.03326  -0.00012   0.00000   0.00004   0.00004   0.03329
   D82       -2.05737   0.00001   0.00000   0.00004   0.00004  -2.05733
   D83        0.02918   0.00098   0.00000   0.00025   0.00025   0.02942
   D84        2.14589   0.00020   0.00000   0.00013   0.00013   2.14602
   D85       -3.13018   0.01335   0.00000   0.00329   0.00334  -3.12684
   D86        0.02401   0.00608   0.00000   0.00135   0.00135   0.02536
   D87       -0.00002   0.00400   0.00000   0.00120   0.00118   0.00115
   D88       -3.12903  -0.00328   0.00000  -0.00075  -0.00082  -3.12984
   D89        0.43402  -0.00834   0.00000  -0.00211  -0.00213   0.43190
   D90       -2.67287   0.03027   0.00000   0.00761   0.00760  -2.66527
   D91       -2.69263   0.00120   0.00000   0.00017   0.00018  -2.69244
   D92        0.48367   0.03981   0.00000   0.00989   0.00991   0.49357
   D93       -0.48672  -0.03226   0.00000  -0.00814  -0.00814  -0.49485
   D94        2.67831  -0.02857   0.00000  -0.00725  -0.00724   2.67107
   D95        2.69006   0.00654   0.00000   0.00165   0.00164   2.69170
   D96       -0.42810   0.01023   0.00000   0.00254   0.00254  -0.42556
   D97        3.13543   0.00173   0.00000   0.00029   0.00030   3.13574
   D98       -0.04933  -0.00140   0.00000  -0.00046  -0.00045  -0.04978
   D99       -0.02938  -0.00302   0.00000  -0.00078  -0.00078  -0.03016
   D100       3.06904  -0.00615   0.00000  -0.00153  -0.00153   3.06751
   D101      -3.12691   0.00260   0.00000   0.00048   0.00050  -3.12642
   D102       0.00519   0.00028   0.00000  -0.00006  -0.00005   0.00514
   D103       0.03706   0.00311   0.00000   0.00082   0.00081   0.03788
   D104      -3.11402   0.00078   0.00000   0.00027   0.00027  -3.11376
   D105       0.00244   0.00185   0.00000   0.00040   0.00041   0.00285
   D106       3.12918   0.00038   0.00000   0.00007   0.00007   3.12925
   D107      -3.09608   0.00441   0.00000   0.00104   0.00105  -3.09503
   D108       0.03066   0.00295   0.00000   0.00071   0.00071   0.03137
   D109      -0.01788  -0.00162   0.00000  -0.00041  -0.00041  -0.01829
   D110       3.13249  -0.00175   0.00000  -0.00042  -0.00042   3.13207
   D111       3.13328   0.00071   0.00000   0.00014   0.00014   3.13343
   D112       0.00047   0.00058   0.00000   0.00013   0.00013   0.00060
   D113       0.01724   0.00070   0.00000   0.00019   0.00018   0.01743
   D114      -3.12878  -0.00023   0.00000  -0.00004  -0.00004  -3.12882
   D115      -3.10951   0.00217   0.00000   0.00052   0.00052  -3.10899
   D116       0.02766   0.00124   0.00000   0.00029   0.00029   0.02795
   D117      -0.00956  -0.00092   0.00000  -0.00020  -0.00021  -0.00977
   D118       3.13642   0.00000   0.00000   0.00002   0.00002   3.13644
   D119       3.12325  -0.00078   0.00000  -0.00019  -0.00019   3.12306
   D120      -0.01395   0.00014   0.00000   0.00003   0.00003  -0.01392
   D121      -2.21254   0.00044   0.00000   0.00011   0.00011  -2.21243
   D122      -0.10949   0.00052   0.00000   0.00013   0.00013  -0.10936
   D123       1.98563   0.00047   0.00000   0.00011   0.00011   1.98575
   D124       0.92452  -0.00056   0.00000  -0.00014  -0.00014   0.92438
   D125       3.02757  -0.00048   0.00000  -0.00012  -0.00012   3.02745
   D126      -1.16050  -0.00053   0.00000  -0.00013  -0.00013  -1.16062
         Item               Value     Threshold  Converged?
 Maximum Force            0.298136     0.000450     NO 
 RMS     Force            0.037056     0.000300     NO 
 Maximum Displacement     0.409406     0.001800     NO 
 RMS     Displacement     0.107400     0.001200     NO 
 GradGradGradGradGradGradGradGradGradGradGradGradGradGradGradGradGradGrad

                    Distance matrix (angstroms):
                    1          2          3          4          5
     1  O    0.000000
     2  C    3.498955   0.000000
     3  C    2.464873   1.562477   0.000000
     4  C    3.599487   1.561931   2.294615   0.000000
     5  C    3.346801   2.431088   1.563706   2.433770   0.000000
     6  C    4.027584   2.432196   2.473935   1.557611   1.563705
     7  C    2.469584   2.382079   2.414714   1.514877   2.854463
     8  C    1.228649   2.369726   1.530184   2.394149   2.431397
     9  C    4.900272   1.533270   2.594222   2.588253   2.971590
    10  C    3.723478   1.535461   2.586518   2.578681   3.847239
    11  C    2.934931   2.651350   1.516334   3.764044   2.601569
    12  H    4.539044   2.256268   3.337696   1.100103   3.438957
    13  H    4.253453   2.897429   2.190425   3.209549   1.101425
    14  H    3.173384   3.381480   2.212225   3.193538   1.101255
    15  H    4.238280   3.394423   3.258015   2.210350   2.226853
    16  H    5.066730   2.870881   3.209045   2.209631   2.220344
    17  H    5.240177   2.213038   2.816630   2.871724   2.606236
    18  H    5.669264   2.170357   3.532504   2.859695   3.855452
    19  H    5.209362   2.175390   2.945897   3.538344   3.581566
    20  H    4.687159   2.176368   3.533252   2.877772   4.589162
    21  H    3.115115   2.206291   2.813003   2.818654   4.150903
    22  H    4.109058   2.180022   2.915556   3.531451   4.303150
    23  H    2.820418   3.576969   2.159659   4.436174   2.865769
    24  H    4.014176   2.953505   2.168410   4.197912   2.863321
    25  H    3.007815   2.929389   2.171521   4.184010   3.552366
    26  C    3.064329   3.663234   3.743452   2.617022   4.092365
    27  H    4.081431   4.003921   4.454825   2.841107   4.780555
    28  C    3.214701   4.926956   4.657298   3.971646   4.939975
    29  C    2.639988   5.333800   4.694805   4.695434   5.103216
    30  C    4.618232   6.118529   5.975709   4.972140   6.091707
    31  C    3.805077   6.725389   5.995588   6.061296   6.309294
    32  H    1.675939   4.789320   3.981950   4.453538   4.592519
    33  C    5.364946   7.359346   7.037898   6.275283   7.125647
    34  H    5.321606   6.222494   6.321890   4.934337   6.358860
    35  C    5.057688   7.645458   7.069824   6.763210   7.241230
    36  H    4.001302   7.244261   6.346386   6.759180   6.721888
    37  H    6.447175   8.270270   8.031671   7.095853   8.043376
    38  C    6.347112   9.117484   8.458187   8.255541   8.590322
    39  H    7.081489   9.730376   9.195851   8.845761   9.407769
    40  H    6.329199   9.375572   8.582942   8.664868   8.792419
    41  H    6.903359   9.570156   8.873903   8.608843   8.816561
                    6          7          8          9         10
     6  C    0.000000
     7  C    2.444722   0.000000
     8  C    2.908284   1.509508   0.000000
     9  C    2.942902   3.799664   3.797222   0.000000
    10  C    3.846753   2.896347   2.876990   2.492783   0.000000
    11  C    3.860676   3.798020   2.564426   3.241691   3.227861
    12  H    2.263015   2.219592   3.378993   2.938816   2.911999
    13  H    2.223152   3.885745   3.399187   2.879831   4.344119
    14  H    2.233784   3.177374   2.585609   4.063466   4.671608
    15  H    1.100487   2.623486   3.275886   4.033357   4.688514
    16  H    1.101282   3.423415   3.918640   2.801820   4.314544
    17  H    2.614475   4.153702   4.130839   1.098861   3.480865
    18  H    3.426231   4.204898   4.522530   1.102558   2.752295
    19  H    3.904276   4.552105   4.258124   1.103161   2.691625
    20  H    4.263113   3.426383   3.787513   2.734247   1.103598
    21  H    4.169541   2.538482   2.503178   3.477754   1.101785
    22  H    4.603641   3.831536   3.450951   2.723262   1.101591
    23  H    4.308416   4.225255   2.821340   4.236683   4.196354
    24  H    4.116331   4.568035   3.513472   2.984164   3.656210
    25  H    4.625534   4.069596   2.837479   3.621442   2.940955
    26  C    3.495343   1.368386   2.553807   5.059334   3.870929
    27  H    3.893426   2.077151   3.460821   5.262599   4.065957
[...]
    21  H    0.000000
    22  H    1.768803   0.000000
    23  H    4.293560   4.068750   0.000000
    24  H    4.180825   3.315309   1.775245   0.000000
    25  H    3.095872   2.533259   1.762878   1.777907   0.000000
    26  C    3.312825   4.868182   5.428643   5.914517   5.264898
    27  H    3.808547   5.280169   6.268011   6.537011   6.035368
    28  C    4.166427   5.858686   6.119601   6.905811   6.020507
    29  C    4.500398   6.128962   5.796650   6.883005   5.816058
    30  C    5.232363   6.960300   7.522770   8.242181   7.375291
    31  C    5.720993   7.368492   6.959961   8.161287   7.004699
    32  H    4.112095   5.580440   4.817043   6.020841   4.920789
    33  C    6.312591   8.071034   8.446754   9.331590   8.340229
    34  H    5.438475   7.105570   8.009845   8.534802   7.800349
    35  C    6.548065   8.276795   8.224213   9.321150   8.202316
    36  H    6.238910   7.787554   7.020441   8.373013   7.142698
    37  H    7.184387   8.943810   9.498474  10.327998   9.361244
    38  C    7.939856   9.657698   9.498717  10.688978   9.505214
    39  H    8.252159   9.986966  10.212556  11.311593  10.059417
    40  H    8.165351   9.821108   9.407102  10.709005   9.452956
    41  H    8.707940  10.429289  10.066337  11.285327  10.214495
                   26         27         28         29         30
    26  C    0.000000
    27  H    1.092853   0.000000
    28  C    1.463697   2.126524   0.000000
    29  C    2.558344   3.451727   1.410042   0.000000
    30  C    2.450912   2.517955   1.413995   2.413266   0.000000
    31  C    3.814602   4.558950   2.435036   1.394506   2.769666
    32  H    2.807344   3.857027   2.158259   1.083284   3.399342
    33  C    3.749266   3.908258   2.448184   2.792915   1.390401
    34  H    2.627923   2.217046   2.164018   3.402225   1.088299
    35  C    4.312001   4.773903   2.851695   2.445049   2.430692
    36  H    4.696051   5.532529   3.412384   2.142939   3.857805
    37  H    4.597581   4.551389   3.427038   3.881297   2.146668
    38  C    5.821953   6.249079   4.362137   3.831983   3.816256
    39  H    6.297267   6.617396   4.873831   4.507654   4.146615
    40  H    6.325722   6.895227   4.871077   4.043996   4.594019
    41  H    6.289527   6.640356   4.863871   4.441787   4.199798
                   31         32         33         34         35
    31  C    0.000000
    32  H    2.153179   0.000000
    33  C    2.402052   3.876165   0.000000
    34  H    3.857919   4.303876   2.143771   0.000000
    35  C    1.402257   3.421471   1.404453   3.409769   0.000000
    36  H    1.088177   2.463556   3.391331   4.946075   2.154565
    37  H    3.393839   4.964567   1.088447   2.457863   2.161017
    38  C    2.541590   4.694149   2.535320   4.678308   1.510470
    39  H    3.308787   5.410238   2.815833   4.875451   2.166625
    40  H    2.651949   4.714990   3.442812   5.547623   2.165317
    41  H    3.226273   5.316441   2.901491   4.960498   2.165062
                   36         37         38         39         40
    36  H    0.000000
    37  H    4.298500   0.000000
    38  C    2.743845   2.739566   0.000000
    39  H    3.571988   2.719236   1.097233   0.000000
    40  H    2.398642   3.796990   1.094881   1.772411   0.000000
    41  H    3.440305   2.883052   1.098178   1.765342   1.770392
                   41
    41  H    0.000000
 Framework group  C1[X(C18H22O)]
 Deg. of freedom   117
                         Standard orientation:                         
 ---------------------------------------------------------------------
 Center     Atomic      Atomic             Coordinates (Angstroms)
 Number     Number       Type             X           Y           Z
 ---------------------------------------------------------------------
      1          8           0       -0.430110    1.934296    0.135646
      2          6           0       -2.884462   -0.464465   -0.659221
      3          6           0       -2.619574    0.829360    0.194689
      4          6           0       -1.901639   -1.332841    0.192773
      5          6           0       -2.907822    0.325763    1.651586
      6          6           0       -2.458124   -1.166501    1.636174
      7          6           0       -0.611725   -0.522132    0.130635
      8          6           0       -1.082022    0.898306    0.141445
      9          6           0       -4.341387   -0.957406   -0.637318
     10          6           0       -2.460809   -0.331253   -2.134064
     11          6           0       -3.315150    2.126248   -0.180550
     12          1           0       -1.787209   -2.373296   -0.129792
     13          1           0       -3.975431    0.431859    1.874613
     14          1           0       -2.367842    0.926105    2.392053
     15          1           0       -1.691787   -1.384029    2.386639
     16          1           0       -3.296755   -1.846914    1.820195
     17          1           0       -4.766784   -1.041181    0.365894
     18          1           0       -4.409304   -1.946595   -1.108835
     19          1           0       -4.984104   -0.278882   -1.211366
     20          1           0       -2.533026   -1.303328   -2.638686
     21          1           0       -1.434087    0.026919   -2.258924
     22          1           0       -3.122283    0.363617   -2.665484
     23          1           0       -2.997111    2.938185    0.482635
     24          1           0       -4.404054    2.024914   -0.098690
     25          1           0       -3.072865    2.432526   -1.204466
     26          6           0        0.619876   -1.090669    0.087786
     27          1           0        0.594894   -2.183236    0.087026
     28          6           0        1.990416   -0.579501    0.035449
     29          6           0        2.364142    0.780111    0.034489
     30          6           0        3.026974   -1.539751   -0.017919
     31          6           0        3.709201    1.144577   -0.016784
     32          1           0        1.594913    1.541872    0.073329
     33          6           0        4.365115   -1.165597   -0.068954
     34          1           0        2.770298   -2.597346   -0.019865
     35          6           0        4.734535    0.189400   -0.068294
     36          1           0        3.966692    2.201851   -0.017216
     37          1           0        5.135152   -1.933742   -0.110360
     38          6           0        6.188851    0.595079   -0.111990
     39          1           0        6.712894    0.116202   -0.948635
     40          1           0        6.298647    1.678866   -0.222052
     41          1           0        6.711646    0.298900    0.807226
 ---------------------------------------------------------------------
 Rotational constants (GHZ):           0.9735686           0.1854390           0.1747154

 **********************************************************************

            Population analysis using the SCF Density.

 **********************************************************************

 Orbital symmetries:
       Occupied  (A) (A) (A) (A) (A) (A) (A) (A) (A) (A) (A) (A)
                 (A) (A) (A) (A) (A) (A) (A) (A) (A) (A) (A) (A)
                 (A) (A) (A) (A) (A) (A) (A) (A) (A) (A) (A) (A)
                 (A) (A) (A) (A) (A) (A) (A) (A) (A) (A) (A) (A)
                 (A) (A) (A) (A) (A) (A) (A) (A) (A) (A) (A) (A)
                 (A) (A) (A) (A) (A) (A) (A) (A) (A)
       Virtual   (A) (A) (A) (A) (A) (A) (A) (A) (A) (A) (A) (A)
                 (A) (A) (A) (A) (A) (A) (A) (A) (A) (A) (A) (A)
                 (A) (A) (A) (A) (A) (A) (A) (A) (A) (A) (A) (A)
                 (A) (A) (A) (A) (A) (A) (A) (A) (A) (A) (A) (A)
                 (A) (A) (A) (A) (A) (A) (A) (A) (A) (A) (A) (A)
                 (A) (A) (A) (A) (A) (A) (A) (A) (A) (A) (A) (A)
                 (A) (A) (A) (A) (A) (A) (A) (A) (A) (A) (A) (A)
                 (A) (A) (A) (A) (A) (A) (A) (A) (A) (A) (A) (A)
                 (A) (A) (A) (A) (A) (A) (A) (A) (A) (A) (A) (A)
                 (A) (A) (A) (A) (A) (A) (A) (A) (A) (A) (A) (A)
                 (A) (A) (A) (A) (A) (A) (A) (A) (A) (A) (A) (A)
                 (A) (A) (A) (A) (A) (A) (A) (A) (A) (A) (A) (A)
                 (A) (A) (A) (A) (A) (A) (A) (A) (A) (A) (A) (A)
                 (A) (A) (A) (A) (A) (A) (A) (A) (A) (A) (A) (A)
                 (A) (A) (A) (A) (A) (A) (A) (A) (A) (A) (A) (A)
                 (A) (A) (A) (A) (A) (A) (A) (A) (A) (A) (A) (A)
                 (A) (A) (A) (A) (A) (A) (A) (A) (A) (A) (A) (A)
                 (A) (A) (A) (A) (A) (A) (A) (A) (A) (A) (A) (A)
                 (A) (A) (A) (A) (A) (A) (A) (A) (A) (A) (A) (A)
                 (A) (A) (A) (A) (A) (A) (A) (A) (A) (A) (A) (A)
                 (A) (A) (A) (A) (A) (A) (A) (A) (A) (A) (A) (A)
                 (A) (A) (A) (A) (A) (A) (A) (A) (A) (A) (A) (A)
                 (A) (A) (A) (A) (A) (A) (A) (A) (A) (A) (A) (A)
                 (A) (A) (A) (A) (A) (A) (A) (A) (A) (A) (A) (A)
                 (A) (A) (A) (A) (A) (A) (A) (A) (A) (A) (A) (A)
                 (A) (A) (A) (A) (A) (A) (A) (A) (A) (A) (A) (A)
                 (A) (A) (A) (A) (A) (A) (A) (A) (A) (A) (A) (A)
                 (A) (A) (A) (A) (A) (A) (A) (A) (A)
 The electronic state is 1-A.
 Alpha  occ. eigenvalues --  -19.14440 -10.27182 -10.21394 -10.20817 -10.20782
 Alpha  occ. eigenvalues --  -10.20569 -10.20182 -10.20121 -10.19993 -10.19974
 Alpha  occ. eigenvalues --  -10.19452 -10.19342 -10.19141 -10.19111 -10.19046
 Alpha  occ. eigenvalues --  -10.18737 -10.18346 -10.17980 -10.17698  -1.03903
 Alpha  occ. eigenvalues --   -0.89048  -0.86427  -0.80661  -0.77211  -0.76662
 Alpha  occ. eigenvalues --   -0.74804  -0.74637  -0.71428  -0.68600  -0.67168
 Alpha  occ. eigenvalues --   -0.66637  -0.61886  -0.60693  -0.59286  -0.56708
 Alpha  occ. eigenvalues --   -0.53741  -0.51722  -0.49099  -0.48402  -0.47710
 Alpha  occ. eigenvalues --   -0.46797  -0.45975  -0.45409  -0.43866  -0.43076
 Alpha  occ. eigenvalues --   -0.42546  -0.41964  -0.41566  -0.41396  -0.40077
 Alpha  occ. eigenvalues --   -0.39718  -0.38794  -0.38694  -0.38422  -0.37837
 Alpha  occ. eigenvalues --   -0.37171  -0.36563  -0.35647  -0.34970  -0.34940
 Alpha  occ. eigenvalues --   -0.33928  -0.33585  -0.33362  -0.31779  -0.30199
 Alpha  occ. eigenvalues --   -0.29069  -0.25555  -0.24164  -0.22499
 Alpha virt. eigenvalues --   -0.07397  -0.01289  -0.00366  -0.00056   0.00754
 Alpha virt. eigenvalues --    0.01199   0.01629   0.02144   0.02829   0.03748
 Alpha virt. eigenvalues --    0.03879   0.04144   0.04289   0.04778   0.05080
 Alpha virt. eigenvalues --    0.05513   0.06090   0.06787   0.06878   0.07256
 Alpha virt. eigenvalues --    0.07311   0.07823   0.07994   0.08389   0.08913
 Alpha virt. eigenvalues --    0.09382   0.09666   0.10131   0.10354   0.10574
 Alpha virt. eigenvalues --    0.11038   0.11683   0.12279   0.12627   0.13030
 Alpha virt. eigenvalues --    0.13598   0.13873   0.14030   0.14571   0.14811
 Alpha virt. eigenvalues --    0.15261   0.15435   0.15894   0.15958   0.16372
 Alpha virt. eigenvalues --    0.16623   0.16924   0.17456   0.17750   0.17960
 Alpha virt. eigenvalues --    0.18186   0.18450   0.19129   0.19616   0.19754
 Alpha virt. eigenvalues --    0.20021   0.20090   0.20534   0.20850   0.21035
 Alpha virt. eigenvalues --    0.21392   0.21636   0.22083   0.22603   0.23062
 Alpha virt. eigenvalues --    0.23133   0.23666   0.24037   0.24502   0.24714
 Alpha virt. eigenvalues --    0.25247   0.25577   0.25728   0.26217   0.26485
 Alpha virt. eigenvalues --    0.26700   0.27022   0.27535   0.27766   0.27988
 Alpha virt. eigenvalues --    0.28714   0.28812   0.29282   0.29682   0.30047
 Alpha virt. eigenvalues --    0.30347   0.30674   0.31243   0.31557   0.31866
 Alpha virt. eigenvalues --    0.32364   0.32960   0.33391   0.33958   0.34415
 Alpha virt. eigenvalues --    0.34792   0.35362   0.35783   0.35976   0.36770
 Alpha virt. eigenvalues --    0.36898   0.37529   0.38716   0.38888   0.39546
 Alpha virt. eigenvalues --    0.40914   0.41641   0.41931   0.42596   0.43983
 Alpha virt. eigenvalues --    0.44598   0.44903   0.47168   0.47471   0.48424
 Alpha virt. eigenvalues --    0.49863   0.51740   0.53128   0.57387   0.59863
 Alpha virt. eigenvalues --    0.61425   0.66772   0.67213   0.68288   0.69139
 Alpha virt. eigenvalues --    0.69383   0.69590   0.70272   0.71272   0.71557
 Alpha virt. eigenvalues --    0.72189   0.72336   0.72661   0.73197   0.74181
 Alpha virt. eigenvalues --    0.74575   0.75236   0.76357   0.76794   0.77031
 Alpha virt. eigenvalues --    0.77380   0.77467   0.78564   0.79020   0.79295
 Alpha virt. eigenvalues --    0.80438   0.81044   0.82463   0.83522   0.84001
 Alpha virt. eigenvalues --    0.85033   0.85930   0.86001   0.86493   0.87918
 Alpha virt. eigenvalues --    0.88768   0.89369   0.90416   0.92477   0.92662
 Alpha virt. eigenvalues --    0.92905   0.94473   0.95418   0.95436   0.96535
 Alpha virt. eigenvalues --    0.97402   0.98061   0.99825   1.00939   1.01390
 Alpha virt. eigenvalues --    1.02077   1.02733   1.03226   1.04061   1.04892
 Alpha virt. eigenvalues --    1.05765   1.07133   1.07338   1.09114   1.09737
 Alpha virt. eigenvalues --    1.11190   1.11807   1.12982   1.13756   1.14768
 Alpha virt. eigenvalues --    1.15754   1.15906   1.17656   1.18252   1.18717
 Alpha virt. eigenvalues --    1.20179   1.20476   1.22335   1.23168   1.24266
 Alpha virt. eigenvalues --    1.25028   1.25715   1.26918   1.28420   1.30199
 Alpha virt. eigenvalues --    1.31998   1.33183   1.35909   1.36830   1.37675
 Alpha virt. eigenvalues --    1.38943   1.39716   1.40741   1.42608   1.43629
 Alpha virt. eigenvalues --    1.44972   1.46281   1.46910   1.48181   1.48822
 Alpha virt. eigenvalues --    1.49706   1.50847   1.51868   1.53013   1.55059
 Alpha virt. eigenvalues --    1.57475   1.63523   1.64818   1.68204   1.70198
 Alpha virt. eigenvalues --    1.72118   1.72835   1.75546   1.76443   1.79871
 Alpha virt. eigenvalues --    1.80775   1.82136   1.83757   1.84283   1.85383
 Alpha virt. eigenvalues --    1.86098   1.86643   1.87413   1.88168   1.89003
 Alpha virt. eigenvalues --    1.90814   1.91919   1.92789   1.93081   1.94857
 Alpha virt. eigenvalues --    1.96861   1.98273   1.99308   2.00188   2.01956
 Alpha virt. eigenvalues --    2.02532   2.03720   2.05621   2.06672   2.08058
 Alpha virt. eigenvalues --    2.09004   2.10084   2.12480   2.13872   2.14420
 Alpha virt. eigenvalues --    2.15661   2.17117   2.17647   2.18986   2.20221
 Alpha virt. eigenvalues --    2.21050   2.22013   2.24020   2.25084   2.26911
 Alpha virt. eigenvalues --    2.29099   2.29927   2.30660   2.31515   2.32299
 Alpha virt. eigenvalues --    2.34970   2.36069   2.36612   2.38373   2.39502
 Alpha virt. eigenvalues --    2.40227   2.42003   2.42758   2.45712   2.46952
 Alpha virt. eigenvalues --    2.49388   2.51660   2.54294   2.57104   2.58220
 Alpha virt. eigenvalues --    2.60981   2.63443   2.64670   2.66366   2.67219
 Alpha virt. eigenvalues --    2.71539   2.73873   2.76868   2.77143   2.79675
 Alpha virt. eigenvalues --    2.81141   2.82570   2.84278   2.86605   2.88837
 Alpha virt. eigenvalues --    2.89404   2.90575   2.95449   3.01503   3.06663
 Alpha virt. eigenvalues --    3.14981   3.28097   3.33760   3.42970   4.22166
 Alpha virt. eigenvalues --    4.25560   4.27418   4.28661   4.32703   4.33829
 Alpha virt. eigenvalues --    4.39245   4.39875   4.40783   4.43063   4.44216
 Alpha virt. eigenvalues --    4.49799   4.53514   4.63993   4.66026   4.77319
 Alpha virt. eigenvalues --    4.82109   4.85965   5.02596
          Condensed to atoms (all electrons):
 Mulliken charges:
               1
     1  O   -0.465489
     2  C   -0.534154
     3  C    0.502785
     4  C   -0.276183
     5  C   -0.521990
     6  C   -0.542853
     7  C    0.622997
     8  C   -0.391873
     9  C   -0.531842
    10  C   -0.633632
    11  C   -0.374806
    12  H    0.180467
    13  H    0.216626
    14  H    0.223206
    15  H    0.214465
    16  H    0.209378
    17  H    0.218684
    18  H    0.216536
    19  H    0.219936
    20  H    0.213394
    21  H    0.231180
    22  H    0.217372
    23  H    0.240118
    24  H    0.213081
    25  H    0.226476
    26  C   -0.113276
    27  H    0.169143
    28  C    0.433032
    29  C   -0.394954
    30  C   -0.107277
    31  C   -0.606636
    32  H    0.260638
    33  C   -0.187210
    34  H    0.175473
    35  C    0.245383
    36  H    0.175693
    37  H    0.175853
    38  C   -0.774851
    39  H    0.220507
    40  H    0.208211
    41  H    0.226391
 Sum of Mulliken charges =  -0.00000
 Mulliken charges with hydrogens summed into heavy atoms:
               1
     1  O   -0.465489
     2  C   -0.534154
     3  C    0.502785
     4  C   -0.095717
     5  C   -0.082158
     6  C   -0.119009
     7  C    0.622997
     8  C   -0.391873
     9  C    0.123314
    10  C    0.028313
    11  C    0.304869
    26  C    0.055867
    28  C    0.433032
    29  C   -0.134316
    30  C    0.068196
    31  C   -0.430942
    33  C   -0.011358
    35  C    0.245383
    38  C   -0.119741
 Electronic spatial extent (au):  <R**2>=           6526.7585
 Charge=              0.0000 electrons
 Dipole moment (field-independent basis, Debye):
    X=             -0.3604    Y=             -2.4357    Z=              0.0438  Tot=              2.4626
 1\1\GINC-BIGMEM001\FOpt\RB3LYP\6-31+G(d)\C18H22O1\BT-LOCAL\17-Apr-2019
 \0\\#T b3lyp/6-31+G* integral=UltraFine opt(maxstep=10,maxcycles=200)\
 \4-BMC-optimization\\0,1\O,0.0075901614,0.8003379494,0.0545195014\C,0.
 0004175257,-0.0621747035,3.4700335718\C,-0.0922156988,1.156032412,2.47
 97301698\C,1.4918728443,-0.3577947517,3.1038611903\C,1.127168427,2.035
 298667,2.9260919822\C,2.1935405739,0.9999411686,3.3953505532\C,1.43413
 85057,-0.49764341,1.5865941273\C,0.400671237,0.5030847248,1.1749784405
 \C,-0.2258963101,0.2974265632,4.9484004005\C,-0.95531922,-1.2185917229
 ,3.1212385026\C,-1.4043713454,1.9084888501,2.3433288138\H,1.9430547984
 ,-1.2172010792,3.6113500234\H,0.8212693261,2.7072026593,3.7358808874\H
 ,1.4803189934,2.6685393808,2.1047694455\H,3.1365661258,1.0874188196,2.
 8468630114\H,2.4250759588,1.1075672961,4.4606840262\H,0.3689760668,1.1
 461821129,5.2950365176\H,0.0219261308,-0.5619683721,5.5851577038\H,-1.
 2805125136,0.5405005114,5.126475415\H,-0.7426987173,-2.0901888929,3.75
 36151868\H,-0.8789893757,-1.5439447301,2.0789555982\H,-1.9970482099,-0
 .9280490887,3.3034063506\H,-1.3169060374,2.6991526591,1.5900652303\H,-
 1.6905250502,2.3730482559,3.2946353653\H,-2.2175336632,1.2470522242,2.
 0236713031\C,2.2091059172,-1.3690988281,0.8924026462\H,2.8653972397,-1
 .9690818042,1.5277210813\C,2.3708609796,-1.7034889075,-0.5233757793\C,
 1.6803354506,-1.1038486797,-1.596606405\C,3.3047043141,-2.7182603768,-
 0.835717197\C,1.922793511,-1.5085645732,-2.9088816126\H,0.9568236457,-
 0.323881669,-1.3924362954\C,3.5388477675,-3.1144578223,-2.1477462761\H
 ,3.8526202885,-3.2010837077,-0.0288318844\C,2.8506669179,-2.5144092166
 ,-3.2149099676\H,1.373712646,-1.027961739,-3.7161369105\H,4.2647558104
 ,-3.9001598916,-2.3488595859\C,3.1139610242,-2.9371530693,-4.640913075
 6\H,3.0154097818,-4.0233379724,-4.7609558534\H,2.417026087,-2.45707515
 49,-5.3355858351\H,4.1324080849,-2.6698540909,-4.9528603677\\Version=E
 S64L-G16RevB.01\State=1-A\HF=-774.4086947\RMSD=5.772e-09\RMSF=4.299e-0
 6\Dipole=0.5435389,-0.4625239,0.6552201\Quadrupole=-3.0836779,-2.16488
 07,5.2485587,-2.4823106,-3.2550665,4.5908391\PG=C01 [X(C18H22O1)]\\@


 THERE'S NOTHING WRONG WITH FOLLOWING A TRAIN OF THOUGHT...
 AS LONG AS IT ULTIMATELY PULLS INTO THE STATION.
 Job cpu time:       0 days  2 hours 49 minutes 43.7 seconds.
 Elapsed time:       0 days  0 hours 14 minutes 15.0 seconds.
 File lengths (MBytes):  RWF=    104 Int=      0 D2E=      0 Chk=     15 Scr=      1
 Normal termination of Gaussian 16 at Wed Apr 17 17:29:06 2019.
