 Entering Gaussian System, Link 0=g16
 Initial command:
 /opt/ohpc/pub/apps/gaussian/16-B01/g16/l1.exe "/scratch/Gau-442858.inp" -scrdir="/scratch/"
 Entering Link 1 = /opt/ohpc/pub/apps/gaussian/16-B01/g16/l1.exe PID=    442859.
  
 Copyright (c) 1988-2017, Gaussian, Inc.  All Rights Reserved.
  
 This is part of the Gaussian(R) 16 program.  It is based on
 the Gaussian(R) 09 system (copyright 2009, Gaussian, Inc.),
 the Gaussian(R) 03 system (copyright 2003, Gaussian, Inc.),
 the Gaussian(R) 98 system (copyright 1998, Gaussian, Inc.),
 the Gaussian(R) 94 system (copyright 1995, Gaussian, Inc.),
 the Gaussian 92(TM) system (copyright 1992, Gaussian, Inc.),
 the Gaussian 90(TM) system (copyright 1990, Gaussian, Inc.),
 the Gaussian 88(TM) system (copyright 1988, Gaussian, Inc.),
 the Gaussian 86(TM) system (copyright 1986, Carnegie Mellon
 University), and the Gaussian 82(TM) system (copyright 1983,
 Carnegie Mellon University). Gaussian is a federally registered
 trademark of Gaussian, Inc.
  
 This software contains proprietary and confidential information,
 including trade secrets, belonging to Gaussian, Inc.
  
 This software is provided under written license and may be
 used, copied, transmitted, or stored only in accord with that
 written license.
  
 The following legend is applicable only to US Government
 contracts under FAR:
  
                    RESTRICTED RIGHTS LEGEND
  
 Use, reproduction and disclosure by the US Government is
 subject to restrictions as set forth in subparagraphs (a)
 and (c) of the Commercial Computer Software - Restricted
 Rights clause in FAR 52.227-19.
  
 Gaussian, Inc.
 340 Quinnipiac St., Bldg. 40, Wallingford CT 06492
  
  
 ---------------------------------------------------------------
 Warning -- This program may not be used in any manner that
 competes with the business of Gaussian, Inc. or will provide
 assistance to any competitor of Gaussian, Inc.  The licensee
 of this program is prohibited from giving any competitor of
 Gaussian, Inc. access to this program.  By using this program,
 the user acknowledges that Gaussian, Inc. is engaged in the
 business of creating and licensing software in the field of
 computational chemistry and represents and warrants to the
 licensee that it is not a competitor of Gaussian, Inc. and that
 it will not use this program in any manner prohibited above.
 ---------------------------------------------------------------
  

 Cite this work as:
 Gaussian 16, Revision B.01,
 M. J. Frisch, G. W. Trucks, H. B. Schlegel, G. E. Scuseria, 
 M. A. Robb, J. R. Cheeseman, G. Scalmani, V. Barone, 
 G. A. Petersson, H. Nakatsuji, X. Li, M. Caricato, A. V. Marenich, 
 J. Bloino, B. G. Janesko, R. Gomperts, B. Mennucci, H. P. Hratchian, 
 J. V. Ortiz, A. F. Izmaylov, J. L. Sonnenberg, D. Williams-Young, 
 F. Ding, F. Lipparini, F. Egidi, J. Goings, B. Peng, A. Petrone, 
 T. Henderson, D. Ranasinghe, V. G. Zakrzewski, J. Gao, N. Rega, 
 G. Zheng, W. Liang, M. Hada, M. Ehara, K. Toyota, R. Fukuda, 
 J. Hasegawa, M. Ishida, T. Nakajima, Y. Honda, O. Kitao, H. Nakai, 
 T. Vreven, K. Throssell, J. A. Montgomery, Jr., J. E. Peralta, 
 F. Ogliaro, M. J. Bearpark, J. J. Heyd, E. N. Brothers, K. N. Kudin, 
 V. N. Staroverov, T. A. Keith, R. Kobayashi, J. Normand, 
 K. Raghavachari, A. P. Rendell, J. C. Burant, S. S. Iyengar, 
 J. Tomasi, M. Cossi, J. M. Millam, M. Klene, C. Adamo, R. Cammi, 
 J. W. Ochterski, R. L. Martin, K. Morokuma, O. Farkas, 
 J. B. Foresman, and D. J. Fox, Gaussian, Inc., Wallingford CT, 2016.
 
 ******************************************
 Gaussian 16:  ES64L-G16RevB.01 20-Dec-2017
                17-Apr-2019 
 ******************************************
 %nproc=12
 Will use up to   12 processors via shared memory.
 %mem=110gb
 %chk=jneutral-opt.chk
 --------------------------------------------------------------------
 #T b3lyp/6-311++G** integral=UltraFine opt(maxstep=10,maxcycles=200)
 --------------------------------------------------------------------
 ------------------
 4-BMC-optimization
 ------------------
 Symbolic Z-matrix:
 Charge =  0 Multiplicity = 1
 O                     0.        0.        0. 
 C                     0.        0.        3.506 
 C                     0.        0.97      2.28 
 C                     1.451    -0.522     3.252 
 C                     1.308     1.794     2.517 
 C                     2.282     0.795     3.225 
 C                     1.354    -0.966     1.809 
 C                     0.387    -0.008     1.168 
 C                    -0.166     0.707     4.856 
 C                    -1.056    -1.109     3.398 
 C                    -1.241     1.793     1.995 
 H                     1.797    -1.29      3.96 
 H                     1.08      2.665     3.152 
 H                     1.71      2.178     1.566 
 H                     3.222     0.665     2.667 
 H                     2.537     1.127     4.244 
 H                     0.51      1.564     4.986 
 H                     0.026    -0.005     5.676 
 H                    -1.201     1.073     4.968 
 H                    -0.919    -1.842     4.212 
 H                    -1.       -1.653     2.441 
 H                    -2.069    -0.686     3.493 
 H                    -1.099     2.389     1.079 
 H                    -1.454     2.482     2.829 
 H                    -2.118     1.146     1.835 
 C                     1.938    -1.987     1.122 
 H                     2.252    -2.85      1.726 
 C                     2.223    -2.033    -0.316 
 C                     1.458    -1.318    -1.27 
 C                     3.287    -2.844    -0.783 
 C                     1.776    -1.389    -2.637 
 H                     0.59     -0.739    -0.947 
 C                     3.602    -2.901    -2.149 
 H                     3.872    -3.424    -0.061 
 C                     2.856    -2.17     -3.1 
 H                     1.165    -0.838    -3.36 
 H                     4.435    -3.529    -2.485 
 C                     3.209    -2.234    -4.569 
 H                     3.26     -3.278    -4.918 
 H                     2.463    -1.703    -5.18 
 H                     4.193    -1.772    -4.756 
 

 GradGradGradGradGradGradGradGradGradGradGradGradGradGradGradGradGradGrad
 Initialization pass.
                           ----------------------------
                           !    Initial Parameters    !
                           ! (Angstroms and Degrees)  !
 --------------------------                            --------------------------
 ! Name  Definition              Value          Derivative Info.                !
 --------------------------------------------------------------------------------
 ! R1    R(1,8)                  1.2305         estimate D2E/DX2                !
 ! R2    R(2,3)                  1.5633         estimate D2E/DX2                !
 ! R3    R(2,4)                  1.5628         estimate D2E/DX2                !
 ! R4    R(2,9)                  1.5329         estimate D2E/DX2                !
 ! R5    R(2,10)                 1.5351         estimate D2E/DX2                !
 ! R6    R(3,5)                  1.564          estimate D2E/DX2                !
 ! R7    R(3,8)                  1.5306         estimate D2E/DX2                !
 ! R8    R(3,11)                 1.5161         estimate D2E/DX2                !
 ! R9    R(4,6)                  1.5575         estimate D2E/DX2                !
 ! R10   R(4,7)                  1.5129         estimate D2E/DX2                !
 ! R11   R(4,12)                 1.1004         estimate D2E/DX2                !
 ! R12   R(5,6)                  1.5646         estimate D2E/DX2                !
 ! R13   R(5,13)                 1.1017         estimate D2E/DX2                !
 ! R14   R(5,14)                 1.1016         estimate D2E/DX2                !
 ! R15   R(6,15)                 1.1008         estimate D2E/DX2                !
 ! R16   R(6,16)                 1.1016         estimate D2E/DX2                !
 ! R17   R(7,8)                  1.5046         estimate D2E/DX2                !
 ! R18   R(7,26)                 1.3622         estimate D2E/DX2                !
 ! R19   R(9,17)                 1.0992         estimate D2E/DX2                !
 ! R20   R(9,18)                 1.1028         estimate D2E/DX2                !
 ! R21   R(9,19)                 1.1035         estimate D2E/DX2                !
 ! R22   R(10,20)                1.1039         estimate D2E/DX2                !
 ! R23   R(10,21)                1.1022         estimate D2E/DX2                !
 ! R24   R(10,22)                1.1019         estimate D2E/DX2                !
 ! R25   R(11,23)                1.102          estimate D2E/DX2                !
 ! R26   R(11,24)                1.1026         estimate D2E/DX2                !
 ! R27   R(11,25)                1.1015         estimate D2E/DX2                !
 ! R28   R(26,27)                1.0992         estimate D2E/DX2                !
 ! R29   R(26,28)                1.4667         estimate D2E/DX2                !
 ! R30   R(28,29)                1.4165         estimate D2E/DX2                !
 ! R31   R(28,30)                1.417          estimate D2E/DX2                !
 ! R32   R(29,31)                1.4053         estimate D2E/DX2                !
 ! R33   R(29,32)                1.0922         estimate D2E/DX2                !
 ! R34   R(30,33)                1.403          estimate D2E/DX2                !
 ! R35   R(30,34)                1.0954         estimate D2E/DX2                !
 ! R36   R(31,35)                1.4109         estimate D2E/DX2                !
 ! R37   R(31,36)                1.0953         estimate D2E/DX2                !
 ! R38   R(33,35)                1.4125         estimate D2E/DX2                !
 ! R39   R(33,37)                1.096          estimate D2E/DX2                !
 ! R40   R(35,38)                1.5122         estimate D2E/DX2                !
 ! R41   R(38,39)                1.102          estimate D2E/DX2                !
 ! R42   R(38,40)                1.1008         estimate D2E/DX2                !
 ! R43   R(38,41)                1.103          estimate D2E/DX2                !
 ! A1    A(3,2,4)               94.5764         estimate D2E/DX2                !
 ! A2    A(3,2,9)              113.8581         estimate D2E/DX2                !
 ! A3    A(3,2,10)             113.1452         estimate D2E/DX2                !
 ! A4    A(4,2,9)              113.4357         estimate D2E/DX2                !
 ! A5    A(4,2,10)             112.702          estimate D2E/DX2                !
 ! A6    A(9,2,10)             108.7018         estimate D2E/DX2                !
 ! A7    A(2,3,5)              102.009          estimate D2E/DX2                !
 ! A8    A(2,3,8)               99.979          estimate D2E/DX2                !
 ! A9    A(2,3,11)             118.9621         estimate D2E/DX2                !
 ! A10   A(5,3,8)              103.608          estimate D2E/DX2                !
 ! A11   A(5,3,11)             115.2808         estimate D2E/DX2                !
 ! A12   A(8,3,11)             114.6602         estimate D2E/DX2                !
 ! A13   A(2,4,6)              102.4598         estimate D2E/DX2                !
 ! A14   A(2,4,7)              101.1581         estimate D2E/DX2                !
 ! A15   A(2,4,12)             114.8657         estimate D2E/DX2                !
 ! A16   A(6,4,7)              105.4168         estimate D2E/DX2                !
 ! A17   A(6,4,12)             115.694          estimate D2E/DX2                !
 ! A18   A(7,4,12)             115.406          estimate D2E/DX2                !
 ! A19   A(3,5,6)              104.6437         estimate D2E/DX2                !
 ! A20   A(3,5,13)             109.3164         estimate D2E/DX2                !
 ! A21   A(3,5,14)             110.98           estimate D2E/DX2                !
 ! A22   A(6,5,13)             111.8882         estimate D2E/DX2                !
 ! A23   A(6,5,14)             112.7095         estimate D2E/DX2                !
 ! A24   A(13,5,14)            107.3082         estimate D2E/DX2                !
 ! A25   A(4,6,5)              102.4513         estimate D2E/DX2                !
 ! A26   A(4,6,15)             111.3782         estimate D2E/DX2                !
 ! A27   A(4,6,16)             111.2416         estimate D2E/DX2                !
 ! A28   A(5,6,15)             112.185          estimate D2E/DX2                !
 ! A29   A(5,6,16)             111.7305         estimate D2E/DX2                !
 ! A30   A(15,6,16)            107.8662         estimate D2E/DX2                !
 ! A31   A(4,7,8)              105.1115         estimate D2E/DX2                !
 ! A32   A(4,7,26)             132.3411         estimate D2E/DX2                !
 ! A33   A(8,7,26)             122.5433         estimate D2E/DX2                !
 ! A34   A(1,8,3)              127.2968         estimate D2E/DX2                !
 ! A35   A(1,8,7)              127.6391         estimate D2E/DX2                !
 ! A36   A(3,8,7)              105.0598         estimate D2E/DX2                !
 ! A37   A(2,9,17)             113.3986         estimate D2E/DX2                !
 ! A38   A(2,9,18)             109.7672         estimate D2E/DX2                !
 ! A39   A(2,9,19)             110.1157         estimate D2E/DX2                !
 ! A40   A(17,9,18)            107.9594         estimate D2E/DX2                !
 ! A41   A(17,9,19)            107.831          estimate D2E/DX2                !
 ! A42   A(18,9,19)            107.5752         estimate D2E/DX2                !
 ! A43   A(2,10,20)            110.025          estimate D2E/DX2                !
 ! A44   A(2,10,21)            112.4993         estimate D2E/DX2                !
 ! A45   A(2,10,22)            110.4267         estimate D2E/DX2                !
 ! A46   A(20,10,21)           107.8301         estimate D2E/DX2                !
 ! A47   A(20,10,22)           107.7835         estimate D2E/DX2                !
 ! A48   A(21,10,22)           108.1214         estimate D2E/DX2                !
 ! A49   A(3,11,23)            110.1424         estimate D2E/DX2                !
 ! A50   A(3,11,24)            110.8031         estimate D2E/DX2                !
 ! A51   A(3,11,25)            111.1099         estimate D2E/DX2                !
 ! A52   A(23,11,24)           108.401          estimate D2E/DX2                !
 ! A53   A(23,11,25)           107.4289         estimate D2E/DX2                !
 ! A54   A(24,11,25)           108.8515         estimate D2E/DX2                !
 ! A55   A(7,26,27)            115.7109         estimate D2E/DX2                !
 ! A56   A(7,26,28)            126.963          estimate D2E/DX2                !
 ! A57   A(27,26,28)           117.2981         estimate D2E/DX2                !
 ! A58   A(26,28,29)           122.6516         estimate D2E/DX2                !
 ! A59   A(26,28,30)           119.1422         estimate D2E/DX2                !
 ! A60   A(29,28,30)           118.1931         estimate D2E/DX2                !
 ! A61   A(28,29,31)           120.4918         estimate D2E/DX2                !
 ! A62   A(28,29,32)           119.8404         estimate D2E/DX2                !
 ! A63   A(31,29,32)           119.6219         estimate D2E/DX2                !
 ! A64   A(28,30,33)           120.8447         estimate D2E/DX2                !
 ! A65   A(28,30,34)           119.1321         estimate D2E/DX2                !
 ! A66   A(33,30,34)           120.021          estimate D2E/DX2                !
 ! A67   A(29,31,35)           121.3583         estimate D2E/DX2                !
 ! A68   A(29,31,36)           119.3711         estimate D2E/DX2                !
 ! A69   A(35,31,36)           119.2653         estimate D2E/DX2                !
 ! A70   A(30,33,35)           121.0574         estimate D2E/DX2                !
 ! A71   A(30,33,37)           119.4993         estimate D2E/DX2                !
 ! A72   A(35,33,37)           119.4414         estimate D2E/DX2                !
 ! A73   A(31,35,33)           118.0202         estimate D2E/DX2                !
 ! A74   A(31,35,38)           121.3924         estimate D2E/DX2                !
 ! A75   A(33,35,38)           120.5869         estimate D2E/DX2                !
 ! A76   A(35,38,39)           111.012          estimate D2E/DX2                !
 ! A77   A(35,38,40)           111.1361         estimate D2E/DX2                !
 ! A78   A(35,38,41)           110.8066         estimate D2E/DX2                !
 ! A79   A(39,38,40)           108.2143         estimate D2E/DX2                !
 ! A80   A(39,38,41)           107.5678         estimate D2E/DX2                !
 ! A81   A(40,38,41)           107.9636         estimate D2E/DX2                !
 ! D1    D(4,2,3,5)            -52.578          estimate D2E/DX2                !
 ! D2    D(4,2,3,8)             53.7816         estimate D2E/DX2                !
 ! D3    D(4,2,3,11)           179.3431         estimate D2E/DX2                !
 ! D4    D(9,2,3,5)             65.5648         estimate D2E/DX2                !
 ! D5    D(9,2,3,8)            171.9245         estimate D2E/DX2                !
 ! D6    D(9,2,3,11)           -62.514          estimate D2E/DX2                !
 ! D7    D(10,2,3,5)          -169.6609         estimate D2E/DX2                !
 ! D8    D(10,2,3,8)           -63.3012         estimate D2E/DX2                !
 ! D9    D(10,2,3,11)           62.2603         estimate D2E/DX2                !
 ! D10   D(3,2,4,6)             55.2014         estimate D2E/DX2                !
 ! D11   D(3,2,4,7)            -53.5269         estimate D2E/DX2                !
 ! D12   D(3,2,4,12)          -178.5141         estimate D2E/DX2                !
 ! D13   D(9,2,4,6)            -63.2847         estimate D2E/DX2                !
 ! D14   D(9,2,4,7)           -172.013          estimate D2E/DX2                !
 ! D15   D(9,2,4,12)            62.9998         estimate D2E/DX2                !
 ! D16   D(10,2,4,6)           172.6479         estimate D2E/DX2                !
 ! D17   D(10,2,4,7)            63.9196         estimate D2E/DX2                !
 ! D18   D(10,2,4,12)          -61.0676         estimate D2E/DX2                !
 ! D19   D(3,2,9,17)           -48.9128         estimate D2E/DX2                !
 ! D20   D(3,2,9,18)          -169.7442         estimate D2E/DX2                !
 ! D21   D(3,2,9,19)            72.0049         estimate D2E/DX2                !
 ! D22   D(4,2,9,17)            57.7536         estimate D2E/DX2                !
 ! D23   D(4,2,9,18)           -63.0779         estimate D2E/DX2                !
 ! D24   D(4,2,9,19)           178.6713         estimate D2E/DX2                !
 ! D25   D(10,2,9,17)         -176.0308         estimate D2E/DX2                !
 ! D26   D(10,2,9,18)           63.1377         estimate D2E/DX2                !
 ! D27   D(10,2,9,19)          -55.1131         estimate D2E/DX2                !
 ! D28   D(3,2,10,20)          172.0691         estimate D2E/DX2                !
 ! D29   D(3,2,10,21)           51.8235         estimate D2E/DX2                !
 ! D30   D(3,2,10,22)          -69.074          estimate D2E/DX2                !
 ! D31   D(4,2,10,20)           66.2328         estimate D2E/DX2                !
 ! D32   D(4,2,10,21)          -54.0128         estimate D2E/DX2                !
 ! D33   D(4,2,10,22)         -174.9104         estimate D2E/DX2                !
 ! D34   D(9,2,10,20)          -60.4062         estimate D2E/DX2                !
 ! D35   D(9,2,10,21)          179.3482         estimate D2E/DX2                !
 ! D36   D(9,2,10,22)           58.4506         estimate D2E/DX2                !
 ! D37   D(2,3,5,6)             31.8733         estimate D2E/DX2                !
 ! D38   D(2,3,5,13)           -88.1191         estimate D2E/DX2                !
 ! D39   D(2,3,5,14)           153.7133         estimate D2E/DX2                !
 ! D40   D(8,3,5,6)            -71.6462         estimate D2E/DX2                !
 ! D41   D(8,3,5,13)           168.3614         estimate D2E/DX2                !
 ! D42   D(8,3,5,14)            50.1938         estimate D2E/DX2                !
 ! D43   D(11,3,5,6)           162.2618         estimate D2E/DX2                !
 ! D44   D(11,3,5,13)           42.2694         estimate D2E/DX2                !
 ! D45   D(11,3,5,14)          -75.8982         estimate D2E/DX2                !
 ! D46   D(2,3,8,1)            145.2123         estimate D2E/DX2                !
 ! D47   D(2,3,8,7)            -35.5059         estimate D2E/DX2                !
 ! D48   D(5,3,8,1)           -109.7202         estimate D2E/DX2                !
 ! D49   D(5,3,8,7)             69.5616         estimate D2E/DX2                !
 ! D50   D(11,3,8,1)            16.7654         estimate D2E/DX2                !
 ! D51   D(11,3,8,7)          -163.9528         estimate D2E/DX2                !
 ! D52   D(2,3,11,23)         -177.5468         estimate D2E/DX2                !
 ! D53   D(2,3,11,24)           62.5174         estimate D2E/DX2                !
 ! D54   D(2,3,11,25)          -58.6267         estimate D2E/DX2                !
 ! D55   D(5,3,11,23)           60.8269         estimate D2E/DX2                !
 ! D56   D(5,3,11,24)          -59.109          estimate D2E/DX2                !
 ! D57   D(5,3,11,25)          179.7469         estimate D2E/DX2                !
 ! D58   D(8,3,11,23)          -59.3811         estimate D2E/DX2                !
 ! D59   D(8,3,11,24)         -179.317          estimate D2E/DX2                !
 ! D60   D(8,3,11,25)           59.5389         estimate D2E/DX2                !
 ! D61   D(2,4,6,5)            -36.7251         estimate D2E/DX2                !
 ! D62   D(2,4,6,15)          -156.8378         estimate D2E/DX2                !
 ! D63   D(2,4,6,16)            82.7882         estimate D2E/DX2                !
 ! D64   D(7,4,6,5)             68.7318         estimate D2E/DX2                !
 ! D65   D(7,4,6,15)           -51.3808         estimate D2E/DX2                !
 ! D66   D(7,4,6,16)          -171.7548         estimate D2E/DX2                !
 ! D67   D(12,4,6,5)          -162.4716         estimate D2E/DX2                !
 ! D68   D(12,4,6,15)           77.4158         estimate D2E/DX2                !
 ! D69   D(12,4,6,16)          -42.9583         estimate D2E/DX2                !
 ! D70   D(2,4,7,8)             33.4152         estimate D2E/DX2                !
 ! D71   D(2,4,7,26)          -145.8371         estimate D2E/DX2                !
 ! D72   D(6,4,7,8)            -72.995          estimate D2E/DX2                !
 ! D73   D(6,4,7,26)           107.7527         estimate D2E/DX2                !
 ! D74   D(12,4,7,8)           158.0377         estimate D2E/DX2                !
 ! D75   D(12,4,7,26)          -21.2146         estimate D2E/DX2                !
 ! D76   D(3,5,6,4)              2.8195         estimate D2E/DX2                !
 ! D77   D(3,5,6,15)           122.3699         estimate D2E/DX2                !
 ! D78   D(3,5,6,16)          -116.3515         estimate D2E/DX2                !
 ! D79   D(13,5,6,4)           121.0765         estimate D2E/DX2                !
 ! D80   D(13,5,6,15)         -119.3731         estimate D2E/DX2                !
 ! D81   D(13,5,6,16)            1.9055         estimate D2E/DX2                !
 ! D82   D(14,5,6,4)          -117.8787         estimate D2E/DX2                !
 ! D83   D(14,5,6,15)            1.6717         estimate D2E/DX2                !
 ! D84   D(14,5,6,16)          122.9503         estimate D2E/DX2                !
 ! D85   D(4,7,8,1)           -179.3458         estimate D2E/DX2                !
 ! D86   D(4,7,8,3)              1.3756         estimate D2E/DX2                !
 ! D87   D(26,7,8,1)            -0.0014         estimate D2E/DX2                !
 ! D88   D(26,7,8,3)          -179.2799         estimate D2E/DX2                !
 ! D89   D(4,7,26,27)           24.8676         estimate D2E/DX2                !
 ! D90   D(4,7,26,28)         -153.1441         estimate D2E/DX2                !
 ! D91   D(8,7,26,27)         -154.2761         estimate D2E/DX2                !
 ! D92   D(8,7,26,28)           27.7122         estimate D2E/DX2                !
 ! D93   D(7,26,28,29)         -27.8868         estimate D2E/DX2                !
 ! D94   D(7,26,28,30)         153.4557         estimate D2E/DX2                !
 ! D95   D(27,26,28,29)        154.1292         estimate D2E/DX2                !
 ! D96   D(27,26,28,30)        -24.5283         estimate D2E/DX2                !
 ! D97   D(26,28,29,31)        179.6471         estimate D2E/DX2                !
 ! D98   D(26,28,29,32)         -2.8265         estimate D2E/DX2                !
 ! D99   D(30,28,29,31)         -1.6833         estimate D2E/DX2                !
 ! D100  D(30,28,29,32)        175.8431         estimate D2E/DX2                !
 ! D101  D(26,28,30,33)       -179.159          estimate D2E/DX2                !
 ! D102  D(26,28,30,34)          0.2973         estimate D2E/DX2                !
 ! D103  D(29,28,30,33)          2.1235         estimate D2E/DX2                !
 ! D104  D(29,28,30,34)       -178.4203         estimate D2E/DX2                !
 ! D105  D(28,29,31,35)          0.1398         estimate D2E/DX2                !
 ! D106  D(28,29,31,36)        179.2886         estimate D2E/DX2                !
 ! D107  D(32,29,31,35)       -177.392          estimate D2E/DX2                !
 ! D108  D(32,29,31,36)          1.7567         estimate D2E/DX2                !
 ! D109  D(28,30,33,35)         -1.0246         estimate D2E/DX2                !
 ! D110  D(28,30,33,37)        179.4785         estimate D2E/DX2                !
 ! D111  D(34,30,33,35)        179.524          estimate D2E/DX2                !
 ! D112  D(34,30,33,37)          0.0271         estimate D2E/DX2                !
 ! D113  D(29,31,35,33)          0.9878         estimate D2E/DX2                !
 ! D114  D(29,31,35,38)       -179.2657         estimate D2E/DX2                !
 ! D115  D(36,31,35,33)       -178.1618         estimate D2E/DX2                !
 ! D116  D(36,31,35,38)          1.5846         estimate D2E/DX2                !
 ! D117  D(30,33,35,31)         -0.5479         estimate D2E/DX2                !
 ! D118  D(30,33,35,38)        179.7035         estimate D2E/DX2                !
 ! D119  D(37,33,35,31)        178.9493         estimate D2E/DX2                !
 ! D120  D(37,33,35,38)         -0.7993         estimate D2E/DX2                !
 ! D121  D(31,35,38,39)       -126.7692         estimate D2E/DX2                !
 ! D122  D(31,35,38,40)         -6.2732         estimate D2E/DX2                !
 ! D123  D(31,35,38,41)        113.7685         estimate D2E/DX2                !
 ! D124  D(33,35,38,39)         52.9708         estimate D2E/DX2                !
 ! D125  D(33,35,38,40)        173.4669         estimate D2E/DX2                !
 ! D126  D(33,35,38,41)        -66.4915         estimate D2E/DX2                !
 --------------------------------------------------------------------------------
 Trust Radius=1.00D-01 FncErr=1.00D-07 GrdErr=1.00D-06 EigMax=2.50D+02 EigMin=1.00D-04
 Number of steps in this run=    200 maximum allowed number of steps=    246.
 GradGradGradGradGradGradGradGradGradGradGradGradGradGradGradGradGradGrad

                    Distance matrix (angstroms):
                    1          2          3          4          5
     1  O    0.000000
     2  C    3.506000   0.000000
     3  C    2.477761   1.563322   0.000000
     4  C    3.599082   1.562818   2.297009   0.000000
     5  C    3.356276   2.430519   1.563972   2.434036   0.000000
     6  C    4.029910   2.432799   2.476121   1.557491   1.564590
     7  C    2.457428   2.376190   2.408994   1.512876   2.849733
     8  C    1.230470   2.369826   1.530620   2.395694   2.432128
     9  C    4.910004   1.532940   2.594706   2.588039   2.970718
    10  C    3.727120   1.535149   2.585982   2.578940   3.846046
    11  C    2.955496   2.652933   1.516125   3.766449   2.601900
    12  H    4.535957   2.258191   3.340540   1.100365   3.439829
    13  H    4.266583   2.897230   2.190847   3.210079   1.101749
    14  H    3.181217   3.381033   2.212049   3.193693   1.101572
    15  H    4.235138   3.395207   3.259460   2.210800   2.227226
    16  H    5.071295   2.872480   3.212213   2.209674   2.222129
    17  H    5.250371   2.212825   2.816979   2.871173   2.604931
    18  H    5.676062   2.170162   3.533287   2.858967   3.854764
    19  H    5.222524   2.175126   2.945905   3.538613   3.580827
    20  H    4.688120   2.176226   3.533345   2.877655   4.588360
    21  H    3.113019   2.206045   2.811770   2.818560   4.149030
    22  H    4.117330   2.179800   2.914527   3.532050   4.301988
    23  H    2.842422   3.578470   2.159575   4.438282   2.866272
    24  H    4.034561   2.955126   2.168331   4.200235   2.863448
    25  H    3.027617   2.931123   2.171388   4.186630   3.552816
    26  C    2.993810   3.658889   3.720303   2.630645   4.079079
    27  H    4.021577   4.045047   4.468872   2.896526   4.804535
    28  C    3.028972   4.866467   4.549610   3.950915   4.848612
    29  C    2.340040   5.164597   4.468021   4.591530   4.903918
    30  C    4.416536   6.106409   5.893465   5.004379   6.026399
    31  C    3.469476   6.543695   5.735499   5.961345   6.075708
    32  H    1.338294   4.552299   3.698961   4.291854   4.350966
    33  C    5.099844   7.305425   6.897470   6.281500   7.005499
    34  H    5.169128   6.280099   6.307131   5.025815   6.359851
    35  C    4.740848   7.516972   6.852790   6.711023   7.047006
    36  H    3.653638   7.014373   6.036198   6.625722   6.441040
    37  H    6.188561   8.247130   7.912993   7.131583   7.945594
    38  C    6.013668   8.971848   8.214140   8.196923   8.369587
    39  H    6.749786   9.609197   8.971305   8.810046   9.209490
    40  H    5.983225   9.187664   8.298367   8.574236   8.532693
    41  H    6.583371   9.433021   8.637425   8.556233   8.598611
                    6          7          8          9         10
     6  C    0.000000
     7  C    2.442818   0.000000
     8  C    2.909825   1.504571   0.000000
     9  C    2.942891   3.793882   3.797154   0.000000
    10  C    3.846737   2.890237   2.875300   2.493135   0.000000
    11  C    3.862698   3.792190   2.564744   3.243508   3.228659
    12  H    2.263333   2.219916   3.380368   2.940101   2.913454
    13  H    2.224193   3.881093   3.400211   2.879218   4.343511
    14  H    2.234313   3.173408   2.585987   4.062920   4.670262
    15  H    1.100847   2.624071   3.276760   4.033860   4.688573
    16  H    1.101640   3.421895   3.920778   2.803061   4.315676
    17  H    2.613899   4.148080   4.130791   1.099238   3.481240
    18  H    3.425921   4.200095   4.522432   1.102818   2.752966
    19  H    3.904692   4.545858   4.257970   1.103506   2.692034
    20  H    4.263137   3.421741   3.786176   2.734803   1.103927
    21  H    4.168799   2.532333   2.500065   3.478129   1.102235
    22  H    4.603953   3.825073   3.449238   2.723899   1.101872
    23  H    4.310141   4.219732   2.821653   4.238554   4.197096
    24  H    4.118310   4.562233   3.514015   2.986352   3.657519
    25  H    4.627667   4.063989   2.837539   3.623461   2.942081
    26  C    3.504350   1.362155   2.514788   5.062332   3.862007
    27  H    3.941310   2.088719   3.444786   5.319387   4.095062
    28  C    4.532080   2.531655   3.110270   6.321749   5.039783
    29  C    5.034756   3.100800   2.967656   6.653261   5.306044
    30  C    5.506034   3.739229   4.501033   7.505407   6.273168
    31  C    6.276061   4.485970   4.279545   8.019328   6.672320
    32  H    4.756217   2.868930   2.246952   6.028040   4.661034
    33  C    6.654524   4.946058   5.450520   8.734158   7.461732
    34  H    5.579055   3.984845   5.032367   7.586006   6.450511
    35  C    7.009017   5.272940   5.383867   8.983738   7.658555
    36  H    6.875798   5.174038   4.668722   8.465296   7.118767
    37  H    7.479070   5.873667   6.490620   9.643816   8.403402
    38  C    8.413121   6.762228   6.769928  10.434114   9.106533
    39  H    9.157197   7.364150   7.482408  11.097242   9.617082
    40  H    8.770222   7.114715   6.890566  10.650870   9.290763
    41  H    8.598708   7.197832   7.258864  10.841442   9.720046
                   11         12         13         14         15
    11  C    0.000000
    12  H    4.753479   0.000000
    13  H    2.736069   4.099875   0.000000
    14  H    3.006770   4.214953   1.774673   0.000000
    15  H    4.652133   2.743082   2.970419   2.405725   0.000000
    16  H    4.446891   2.543648   2.383434   2.993362   1.780336
    17  H    3.473402   3.294596   2.213743   3.676057   3.679797
    18  H    4.288106   2.780705   3.822354   4.949085   4.440428
    19  H    3.059204   3.948143   3.321939   4.611784   5.002399
    20  H    4.269894   2.782960   5.043079   5.483918   5.081334
    21  H    3.483090   3.203489   4.845312   4.773498   4.821772
    22  H    3.012479   3.940668   4.611039   5.118268   5.522876
    23  H    1.102015   5.497456   3.020190   2.858701   4.915787
    24  H    1.102563   5.106481   2.561049   3.420304   5.019234
    25  H    1.101516   5.077100   3.777440   3.973785   5.425789
    26  C    5.015633   2.925736   5.147637   4.194800   3.326978
    27  H    5.816430   2.762495   5.815693   5.059659   3.765847
    28  C    5.654935   4.360929   5.950183   4.640863   4.144333
    29  C    5.255773   5.241050   5.963326   4.508704   4.748047
    30  C    7.051371   5.208749   7.120685   5.764132   4.921362
    31  C    6.378310   6.597776   7.101539   5.512990   5.868752
    32  H    4.291730   5.083217   5.350618   4.009795   4.686111
    33  C    7.915871   6.570634   8.089588   6.570931   6.004549
    34  H    7.588609   5.002801   7.429304   6.221236   4.958266
    35  C    7.645247   7.193016   8.100550   6.479967   6.436573
    36  H    6.433275   7.361123   7.394889   5.801617   6.543316
    37  H    8.978366   7.315066   9.022052   7.510398   6.753081
    38  C    8.894117   8.696478   9.388646   7.703958   7.795131
    39  H    9.683161   9.214738  10.256537   8.614679   8.548738
    40  H    8.798992   9.173534   9.508645   7.819059   8.231580
    41  H    9.370890   9.052171   9.587189   7.857192   7.872912
                   16         17         18         19         20
    16  H    0.000000
    17  H    2.202331   0.000000
    18  H    3.104379   1.781044   0.000000
    19  H    3.807852   1.780148   1.780134   0.000000
    20  H    4.556306   3.773851   2.531974   3.024613   0.000000
    21  H    4.846605   4.371066   3.772772   3.722527   1.782897
    22  H    5.006616   3.734005   3.101334   2.454207   1.782077
    23  H    4.983008   4.305131   5.303703   4.106894   5.267775
    24  H    4.445934   3.058213   4.059677   2.573832   4.571202
    25  H    5.241437   4.124307   4.546957   3.265258   4.001984
    26  C    4.450020   5.438684   5.321934   5.831692   4.210888
    27  H    4.715727   5.757218   5.352719   6.150098   4.153493
    28  C    5.556779   6.632042   6.696541   7.020803   5.514656
    29  C    6.127517   6.952853   7.212594   7.190258   5.998085
    30  C    6.449967   7.773259   7.772562   8.280038   6.606396
    31  C    7.365972   8.272430   8.607202   8.529947   7.374079
    32  H    5.849722   6.364801   6.687375   6.440361   5.487164
    33  C    7.630823   8.966879   9.077732   9.461140   7.875484
    34  H    6.405221   7.852095   7.706779   8.440923   6.611727
    35  C    8.056445   9.210313   9.471763   9.595255   8.235506
    36  H    7.972730   8.709440   9.145518   8.865972   7.917465
    37  H    8.400011   9.856983   9.922690  10.415859   8.738484
    38  C    9.456050  10.630495  10.957187  11.015386   9.710819
    39  H   10.191614  11.362072  11.550070  11.686091  10.143128
    40  H    9.840028  10.855186  11.254995  11.140600   9.983332
    41  H    9.599299  10.936176  11.371579  11.478042  10.322910
                   21         22         23         24         25
    21  H    0.000000
    22  H    1.784532   0.000000
    23  H    4.266452   4.027893   0.000000
    24  H    4.177904   3.294745   1.788064   0.000000
    25  H    3.074339   2.471354   1.776217   1.792715   0.000000
    26  C    3.237771   4.834283   5.326781   5.864424   5.174475
    27  H    3.538296   5.145505   6.252594   6.586446   5.922567
    28  C    4.258307   5.894417   5.704016   6.617898   5.794577
    29  C    4.463800   5.960312   5.079163   6.302503   5.338548
    30  C    5.494636   7.185254   7.077311   7.993116   7.210274
    31  C    5.793268   7.270154   6.028894   7.436040   6.448895
    32  H    3.852537   5.175586   4.091672   5.367584   4.315786
    33  C    6.618460   8.300520   7.778399   8.906195   8.060327
    34  H    5.756112   7.444665   7.733137   8.461632   7.769158
    35  C    6.770429   8.362149   7.341018   8.681604   7.751823
    36  H    6.245242   7.579279   5.936661   7.495684   6.457737
    37  H    7.571267   9.280148   8.851552   9.952439   9.135635
    38  C    8.197155   9.759582   8.475311   9.935524   8.989580
    39  H    8.656969  10.288908   9.331655  10.743156   9.700395
    40  H    8.371052   9.838406   8.282958   9.848918   8.849440
    41  H    8.875709  10.413359   8.908783  10.369057   9.580435
                   26         27         28         29         30
    26  C    0.000000
    27  H    1.099173   0.000000
    28  C    1.466692   2.199567   0.000000
    29  C    2.529748   3.457380   1.416533   0.000000
    30  C    2.486619   2.714101   1.417006   2.431273   0.000000
    31  C    3.809715   4.625675   2.449813   1.405295   2.799547
    32  H    2.766834   3.789920   2.176990   1.092243   3.425161
    33  C    3.782028   4.103745   2.452540   2.806290   1.403007
    34  H    2.684178   2.479364   2.172351   3.424078   1.095404
    35  C    4.324523   4.910956   2.858341   2.455445   2.451229
    36  H    4.691061   5.576478   3.437052   2.164336   3.894592
    37  H    4.650078   4.791560   3.440279   3.902214   2.164240
    38  C    5.836431   6.397056   4.370424   3.845576   3.835620
    39  H    6.316325   6.733646   4.878914   4.516271   4.157801
    40  H    6.330204   7.003782   4.881086   4.055410   4.616759
    41  H    6.299376   6.851707   4.864424   4.454047   4.213638
                   31         32         33         34         35
    31  C    0.000000
    32  H    2.164531   0.000000
    33  C    2.420447   3.897588   0.000000
    34  H    3.894896   4.331945   2.169372   0.000000
    35  C    1.410932   3.437721   1.412543   3.440973   0.000000
    36  H    1.095286   2.482538   3.414888   4.989854   2.168249
    37  H    3.416575   4.993352   1.095979   2.490737   2.172176
    38  C    2.549537   4.713074   2.540814   4.709324   1.512173
    39  H    3.312633   5.417034   2.815396   4.897582   2.167027
    40  H    2.652812   4.728183   3.452461   5.581333   2.167703
    41  H    3.237088   5.343892   2.901788   4.987501   2.165250
                   36         37         38         39         40
    36  H    0.000000
    37  H    4.324350   0.000000
    38  C    2.754711   2.742837   0.000000
    39  H    3.573512   2.713506   1.101970   0.000000
    40  H    2.396962   3.806059   1.100817   1.784511   0.000000
    41  H    3.462652   2.881502   1.103027   1.778980   1.782537
                   41
    41  H    0.000000
 Framework group  C1[X(C18H22O)]
 Deg. of freedom   117
                         Standard orientation:                         
 ---------------------------------------------------------------------
 Center     Atomic      Atomic             Coordinates (Angstroms)
 Number     Number       Type             X           Y           Z
 ---------------------------------------------------------------------
      1          8           0       -0.039950    1.571543   -0.391462
      2          6           0       -2.977434   -0.341740   -0.442152
      3          6           0       -2.327667    0.888356    0.271039
      4          6           0       -2.005918   -1.384851    0.198532
      5          6           0       -2.346020    0.442530    1.770009
      6          6           0       -2.177553   -1.112233    1.722343
      7          6           0       -0.661288   -0.795376   -0.166546
      8          6           0       -0.867257    0.694865   -0.144366
      9          6           0       -4.447183   -0.568877   -0.070463
     10          6           0       -2.859777   -0.283953   -1.971694
     11          6           0       -2.884295    2.272375    0.000316
     12          1           0       -2.167797   -2.425223   -0.121196
     13          1           0       -3.304263    0.738031    2.226409
     14          1           0       -1.544719    0.939864    2.339250
     15          1           0       -1.299524   -1.452874    2.292336
     16          1           0       -3.062860   -1.630906    2.123368
     17          1           0       -4.630722   -0.554017    1.013242
     18          1           0       -4.783657   -1.544602   -0.458991
     19          1           0       -5.079738    0.209258   -0.531012
     20          1           0       -3.204112   -1.235202   -2.413524
     21          1           0       -1.824844   -0.110307   -2.308863
     22          1           0       -3.491843    0.523088   -2.375797
     23          1           0       -2.294362    3.030877    0.539843
     24          1           0       -3.932708    2.344915    0.333803
     25          1           0       -2.834295    2.517225   -1.072478
     26          6           0        0.535201   -1.365117   -0.481626
     27          1           0        0.485171   -2.384279   -0.890266
     28          6           0        1.867049   -0.779789   -0.295185
     29          6           0        2.095223    0.618229   -0.301922
     30          6           0        2.981293   -1.639167   -0.128346
     31          6           0        3.389947    1.130342   -0.111433
     32          1           0        1.266949    1.303159   -0.496415
     33          6           0        4.268583   -1.117683    0.070075
     34          1           0        2.826047   -2.723354   -0.146915
     35          6           0        4.495294    0.276432    0.088009
     36          1           0        3.547360    2.214066   -0.131763
     37          1           0        5.113413   -1.802638    0.205231
     38          6           0        5.886155    0.827035    0.309385
     39          1           0        6.604315    0.382717   -0.398547
     40          1           0        5.905819    1.919927    0.179008
     41          1           0        6.239843    0.599666    1.329129
 ---------------------------------------------------------------------
 Rotational constants (GHZ):           0.9743522           0.2013402           0.1888970
   572 basis functions,   882 primitive gaussians,   591 cartesian basis functions
    69 alpha electrons       69 beta electrons
       nuclear repulsion energy      1437.8369900051 Hartrees.
 NAtoms=   41 NActive=   41 NUniq=   41 SFac= 1.00D+00 NAtFMM=   60 NAOKFM=F Big=F
 ExpMin= 3.60D-02 ExpMax= 8.59D+03 ExpMxC= 1.30D+03 IAcc=3 IRadAn=         5 AccDes= 0.00D+00
 Harris functional with IExCor=  402 and IRadAn=       5 diagonalized for initial guess.
 HarFok:  IExCor=  402 AccDes= 0.00D+00 IRadAn=         5 IDoV= 1 UseB2=F ITyADJ=14
 ICtDFT=  3500011 ScaDFX=  1.000000  1.000000  1.000000  1.000000
 FoFCou: FMM=F IPFlag=           0 FMFlag=      100000 FMFlg1=           0
         NFxFlg=           0 DoJE=T BraDBF=F KetDBF=T FulRan=T
         wScrn=  0.000000 ICntrl=       500 IOpCl=  0 I1Cent=   200000004 NGrid=           0
         NMat0=    1 NMatS0=      1 NMatT0=    0 NMatD0=    1 NMtDS0=    0 NMtDT0=    0
 Petite list used in FoFCou.
 SCF Done:  E(RB3LYP) =  -774.527354076     A.U. after   16 cycles
            NFock= 16  Conv=0.68D-08     -V/T= 2.0048

 **********************************************************************

            Population analysis using the SCF Density.

 **********************************************************************

 Orbital symmetries:
       Occupied  (A) (A) (A) (A) (A) (A) (A) (A) (A) (A) (A) (A)
                 (A) (A) (A) (A) (A) (A) (A) (A) (A) (A) (A) (A)
                 (A) (A) (A) (A) (A) (A) (A) (A) (A) (A) (A) (A)
                 (A) (A) (A) (A) (A) (A) (A) (A) (A) (A) (A) (A)
                 (A) (A) (A) (A) (A) (A) (A) (A) (A) (A) (A) (A)
                 (A) (A) (A) (A) (A) (A) (A) (A) (A)
       Virtual   (A) (A) (A) (A) (A) (A) (A) (A) (A) (A) (A) (A)
                 (A) (A) (A) (A) (A) (A) (A) (A) (A) (A) (A) (A)
                 (A) (A) (A) (A) (A) (A) (A) (A) (A) (A) (A) (A)
                 (A) (A) (A) (A) (A) (A) (A) (A) (A) (A) (A) (A)
                 (A) (A) (A) (A) (A) (A) (A) (A) (A) (A) (A) (A)
                 (A) (A) (A) (A) (A) (A) (A) (A) (A) (A) (A) (A)
                 (A) (A) (A) (A) (A) (A) (A) (A) (A) (A) (A) (A)
                 (A) (A) (A) (A) (A) (A) (A) (A) (A) (A) (A) (A)
                 (A) (A) (A) (A) (A) (A) (A) (A) (A) (A) (A) (A)
                 (A) (A) (A) (A) (A) (A) (A) (A) (A) (A) (A) (A)
                 (A) (A) (A) (A) (A) (A) (A) (A) (A) (A) (A) (A)
                 (A) (A) (A) (A) (A) (A) (A) (A) (A) (A) (A) (A)
                 (A) (A) (A) (A) (A) (A) (A) (A) (A) (A) (A) (A)
                 (A) (A) (A) (A) (A) (A) (A) (A) (A) (A) (A) (A)
                 (A) (A) (A) (A) (A) (A) (A) (A) (A) (A) (A) (A)
                 (A) (A) (A) (A) (A) (A) (A) (A) (A) (A) (A) (A)
                 (A) (A) (A) (A) (A) (A) (A) (A) (A) (A) (A) (A)
                 (A) (A) (A) (A) (A) (A) (A) (A) (A) (A) (A) (A)
                 (A) (A) (A) (A) (A) (A) (A) (A) (A) (A) (A) (A)
                 (A) (A) (A) (A) (A) (A) (A) (A) (A) (A) (A) (A)
                 (A) (A) (A) (A) (A) (A) (A) (A) (A) (A) (A) (A)
                 (A) (A) (A) (A) (A) (A) (A) (A) (A) (A) (A) (A)
                 (A) (A) (A) (A) (A) (A) (A) (A) (A) (A) (A) (A)
                 (A) (A) (A) (A) (A) (A) (A) (A) (A) (A) (A) (A)
                 (A) (A) (A) (A) (A) (A) (A) (A) (A) (A) (A) (A)
                 (A) (A) (A) (A) (A) (A) (A) (A) (A) (A) (A) (A)
                 (A) (A) (A) (A) (A) (A) (A) (A) (A) (A) (A) (A)
                 (A) (A) (A) (A) (A) (A) (A) (A) (A) (A) (A) (A)
                 (A) (A) (A) (A) (A) (A) (A) (A) (A) (A) (A) (A)
                 (A) (A) (A) (A) (A) (A) (A) (A) (A) (A) (A) (A)
                 (A) (A) (A) (A) (A) (A) (A) (A) (A) (A) (A) (A)
                 (A) (A) (A) (A) (A) (A) (A) (A) (A) (A) (A) (A)
                 (A) (A) (A) (A) (A) (A) (A) (A) (A) (A) (A) (A)
                 (A) (A) (A) (A) (A) (A) (A) (A) (A) (A) (A) (A)
                 (A) (A) (A) (A) (A) (A) (A) (A) (A) (A) (A) (A)
                 (A) (A) (A) (A) (A) (A) (A) (A) (A) (A) (A) (A)
                 (A) (A) (A) (A) (A) (A) (A) (A) (A) (A) (A) (A)
                 (A) (A) (A) (A) (A) (A) (A) (A) (A) (A) (A) (A)
                 (A) (A) (A) (A) (A) (A) (A) (A) (A) (A) (A) (A)
                 (A) (A) (A) (A) (A) (A) (A) (A) (A) (A) (A) (A)
                 (A) (A) (A) (A) (A) (A) (A) (A) (A) (A) (A) (A)
                 (A) (A) (A) (A) (A) (A)
 The electronic state is 1-A.
 Alpha  occ. eigenvalues --  -19.11628 -10.26217 -10.19960 -10.19529 -10.19204
 Alpha  occ. eigenvalues --  -10.19156 -10.18627 -10.18285 -10.18170 -10.18135
 Alpha  occ. eigenvalues --  -10.18099 -10.17637 -10.17016 -10.16970 -10.16732
 Alpha  occ. eigenvalues --  -10.16683 -10.16599 -10.16045 -10.13515  -1.05645
 Alpha  occ. eigenvalues --   -0.89870  -0.85049  -0.80409  -0.77256  -0.76686
 Alpha  occ. eigenvalues --   -0.75170  -0.73253  -0.71092  -0.68542  -0.67565
 Alpha  occ. eigenvalues --   -0.66359  -0.61120  -0.61023  -0.59114  -0.56688
 Alpha  occ. eigenvalues --   -0.53907  -0.52270  -0.50792  -0.48802  -0.47987
 Alpha  occ. eigenvalues --   -0.47296  -0.46357  -0.45454  -0.43472  -0.43306
 Alpha  occ. eigenvalues --   -0.42455  -0.41720  -0.41504  -0.40606  -0.40502
 Alpha  occ. eigenvalues --   -0.39493  -0.39292  -0.38796  -0.38746  -0.37922
 Alpha  occ. eigenvalues --   -0.37099  -0.35832  -0.35576  -0.35229  -0.34282
 Alpha  occ. eigenvalues --   -0.34261  -0.33836  -0.32658  -0.32010  -0.30800
 Alpha  occ. eigenvalues --   -0.28052  -0.24286  -0.22551  -0.21807
 Alpha virt. eigenvalues --   -0.07744  -0.01331  -0.00913  -0.00457  -0.00210
 Alpha virt. eigenvalues --    0.00149   0.00442   0.00992   0.01656   0.02457
 Alpha virt. eigenvalues --    0.02759   0.02869   0.03007   0.03332   0.03852
 Alpha virt. eigenvalues --    0.04331   0.04987   0.05207   0.05488   0.05989
 Alpha virt. eigenvalues --    0.06170   0.06330   0.06792   0.06904   0.07243
 Alpha virt. eigenvalues --    0.07792   0.08251   0.08915   0.09009   0.09354
 Alpha virt. eigenvalues --    0.09572   0.09810   0.10526   0.10701   0.10811
 Alpha virt. eigenvalues --    0.11133   0.11521   0.11787   0.11995   0.12368
 Alpha virt. eigenvalues --    0.12448   0.12769   0.12855   0.13119   0.13246
 Alpha virt. eigenvalues --    0.13321   0.13456   0.13791   0.14045   0.14163
 Alpha virt. eigenvalues --    0.14305   0.14706   0.14895   0.15159   0.15294
 Alpha virt. eigenvalues --    0.15630   0.15896   0.16019   0.16378   0.16647
 Alpha virt. eigenvalues --    0.17027   0.17068   0.17347   0.17519   0.17782
 Alpha virt. eigenvalues --    0.17940   0.18238   0.18492   0.18909   0.18962
 Alpha virt. eigenvalues --    0.19215   0.19569   0.19825   0.20397   0.20619
 Alpha virt. eigenvalues --    0.20866   0.21294   0.21630   0.21951   0.22191
 Alpha virt. eigenvalues --    0.22416   0.22731   0.22998   0.23357   0.23877
 Alpha virt. eigenvalues --    0.24003   0.24534   0.24802   0.25096   0.25444
 Alpha virt. eigenvalues --    0.25806   0.26107   0.26430   0.26664   0.27368
 Alpha virt. eigenvalues --    0.27528   0.27896   0.28461   0.28551   0.28920
 Alpha virt. eigenvalues --    0.29292   0.29396   0.29877   0.30146   0.30293
 Alpha virt. eigenvalues --    0.30833   0.30926   0.31798   0.32268   0.32294
 Alpha virt. eigenvalues --    0.32692   0.33137   0.33257   0.33469   0.33876
 Alpha virt. eigenvalues --    0.34470   0.34884   0.35324   0.35484   0.36367
 Alpha virt. eigenvalues --    0.36442   0.37117   0.37685   0.38112   0.38386
 Alpha virt. eigenvalues --    0.38909   0.39862   0.39909   0.40217   0.41203
 Alpha virt. eigenvalues --    0.41380   0.42175   0.43236   0.44059   0.44396
 Alpha virt. eigenvalues --    0.45486   0.46907   0.47725   0.48392   0.48512
 Alpha virt. eigenvalues --    0.49812   0.51204   0.51730   0.52198   0.52704
 Alpha virt. eigenvalues --    0.53413   0.54058   0.55022   0.55669   0.55907
 Alpha virt. eigenvalues --    0.56856   0.57438   0.57637   0.58342   0.58563
 Alpha virt. eigenvalues --    0.58612   0.59733   0.60237   0.61028   0.61576
 Alpha virt. eigenvalues --    0.62122   0.62435   0.63410   0.63730   0.64474
 Alpha virt. eigenvalues --    0.64841   0.65020   0.65609   0.65826   0.66490
 Alpha virt. eigenvalues --    0.67228   0.67819   0.67923   0.68322   0.68526
 Alpha virt. eigenvalues --    0.68945   0.69186   0.69372   0.70003   0.70413
 Alpha virt. eigenvalues --    0.70872   0.71267   0.72464   0.72748   0.72945
 Alpha virt. eigenvalues --    0.73912   0.74225   0.74607   0.75231   0.75663
 Alpha virt. eigenvalues --    0.76710   0.76782   0.77124   0.77634   0.78178
 Alpha virt. eigenvalues --    0.78427   0.78702   0.79892   0.80184   0.80920
 Alpha virt. eigenvalues --    0.81455   0.82465   0.82894   0.83786   0.84475
 Alpha virt. eigenvalues --    0.85765   0.86810   0.87752   0.88480   0.89625
 Alpha virt. eigenvalues --    0.90293   0.91174   0.91869   0.92469   0.93360
 Alpha virt. eigenvalues --    0.94458   0.95888   0.96467   0.96777   0.97912
 Alpha virt. eigenvalues --    0.98343   1.00271   1.00540   1.01489   1.02032
 Alpha virt. eigenvalues --    1.03711   1.05543   1.06100   1.07184   1.08092
 Alpha virt. eigenvalues --    1.08827   1.10092   1.11584   1.13149   1.13835
 Alpha virt. eigenvalues --    1.14688   1.15719   1.19351   1.19661   1.21342
 Alpha virt. eigenvalues --    1.22956   1.23340   1.24852   1.26215   1.27476
 Alpha virt. eigenvalues --    1.28889   1.31289   1.32765   1.34725   1.37048
 Alpha virt. eigenvalues --    1.37358   1.37884   1.38881   1.40110   1.41771
 Alpha virt. eigenvalues --    1.42592   1.44330   1.44759   1.45824   1.46060
 Alpha virt. eigenvalues --    1.47100   1.48403   1.49276   1.50144   1.50792
 Alpha virt. eigenvalues --    1.51019   1.52947   1.53467   1.53802   1.54615
 Alpha virt. eigenvalues --    1.55203   1.56484   1.56975   1.57666   1.58422
 Alpha virt. eigenvalues --    1.59446   1.59622   1.60427   1.61150   1.61542
 Alpha virt. eigenvalues --    1.61904   1.61946   1.62994   1.64224   1.64877
 Alpha virt. eigenvalues --    1.66184   1.66423   1.67197   1.67517   1.68331
 Alpha virt. eigenvalues --    1.68617   1.70275   1.70893   1.71136   1.71887
 Alpha virt. eigenvalues --    1.73724   1.74143   1.75348   1.76648   1.77143
 Alpha virt. eigenvalues --    1.77744   1.78399   1.78977   1.79946   1.80458
 Alpha virt. eigenvalues --    1.81687   1.82353   1.82901   1.83345   1.84272
 Alpha virt. eigenvalues --    1.85414   1.86243   1.86711   1.88578   1.89033
 Alpha virt. eigenvalues --    1.90231   1.91301   1.92137   1.93424   1.94040
 Alpha virt. eigenvalues --    1.94918   1.95758   1.96269   1.97103   1.99330
 Alpha virt. eigenvalues --    1.99572   2.00068   2.00847   2.01671   2.02262
 Alpha virt. eigenvalues --    2.03361   2.05762   2.06533   2.07722   2.09383
 Alpha virt. eigenvalues --    2.09662   2.10153   2.11744   2.13368   2.14492
 Alpha virt. eigenvalues --    2.14883   2.16704   2.17091   2.17869   2.18963
 Alpha virt. eigenvalues --    2.19574   2.20282   2.22378   2.23338   2.26096
 Alpha virt. eigenvalues --    2.27813   2.28695   2.29551   2.30742   2.32081
 Alpha virt. eigenvalues --    2.34078   2.36023   2.37671   2.39398   2.40442
 Alpha virt. eigenvalues --    2.41053   2.42384   2.43765   2.44686   2.46719
 Alpha virt. eigenvalues --    2.47049   2.48211   2.49828   2.50519   2.50832
 Alpha virt. eigenvalues --    2.52073   2.53042   2.53620   2.54301   2.55071
 Alpha virt. eigenvalues --    2.56055   2.56876   2.57422   2.58433   2.58570
 Alpha virt. eigenvalues --    2.58889   2.60540   2.61571   2.63375   2.64072
 Alpha virt. eigenvalues --    2.65496   2.67017   2.68416   2.69718   2.69796
 Alpha virt. eigenvalues --    2.71432   2.73140   2.73291   2.74629   2.75295
 Alpha virt. eigenvalues --    2.75650   2.76989   2.77517   2.77641   2.78907
 Alpha virt. eigenvalues --    2.79218   2.80319   2.83164   2.84419   2.84706
 Alpha virt. eigenvalues --    2.86644   2.87539   2.88909   2.89174   2.90431
 Alpha virt. eigenvalues --    2.91628   2.92934   2.94756   2.95549   2.97218
 Alpha virt. eigenvalues --    2.97845   2.99094   2.99863   3.01776   3.02260
 Alpha virt. eigenvalues --    3.02938   3.06043   3.07068   3.11185   3.12176
 Alpha virt. eigenvalues --    3.13140   3.14522   3.15614   3.18239   3.18869
 Alpha virt. eigenvalues --    3.21757   3.23089   3.23835   3.25514   3.29309
 Alpha virt. eigenvalues --    3.32012   3.35032   3.37406   3.41559   3.43243
 Alpha virt. eigenvalues --    3.45189   3.46733   3.50679   3.54798   3.55243
 Alpha virt. eigenvalues --    3.63127   3.65553   3.68149   3.70254   3.71952
 Alpha virt. eigenvalues --    3.76398   3.78411   3.78978   3.79388   3.81122
 Alpha virt. eigenvalues --    3.81837   3.82668   3.83210   3.84056   3.85855
 Alpha virt. eigenvalues --    3.94236   4.04715   4.06776   4.14685   4.15458
 Alpha virt. eigenvalues --    4.18477   4.20719   4.25130   4.26250   4.27583
 Alpha virt. eigenvalues --    4.32081   4.33726   4.37213   4.44324   4.55209
 Alpha virt. eigenvalues --    4.84491   5.16190   5.37820   5.87634  23.61227
 Alpha virt. eigenvalues --   23.76764  23.80212  23.84029  23.88585  23.92097
 Alpha virt. eigenvalues --   23.94810  23.95645  23.96020  23.96684  23.97423
 Alpha virt. eigenvalues --   23.98044  23.99752  24.03378  24.06699  24.08250
 Alpha virt. eigenvalues --   24.15464  24.16978  50.07361
          Condensed to atoms (all electrons):
 Mulliken charges:
               1
     1  O   -0.163696
     2  C   -0.219867
     3  C   -0.092644
     4  C    0.014259
     5  C   -0.633676
     6  C   -0.615700
     7  C    0.406115
     8  C   -0.687624
     9  C   -0.316179
    10  C   -0.607793
    11  C   -0.064484
    12  H    0.253289
    13  H    0.171333
    14  H    0.174068
    15  H    0.154169
    16  H    0.152342
    17  H    0.151581
    18  H    0.158939
    19  H    0.155055
    20  H    0.161021
    21  H    0.191211
    22  H    0.139112
    23  H    0.189723
    24  H    0.157481
    25  H    0.170960
    26  C   -0.292528
    27  H    0.171161
    28  C    1.358181
    29  C   -0.647151
    30  C   -0.104580
    31  C   -0.461922
    32  H    0.297381
    33  C   -0.812807
    34  H    0.153035
    35  C    0.617231
    36  H    0.151563
    37  H    0.151397
    38  C   -0.442603
    39  H    0.154371
    40  H    0.145231
    41  H    0.163046
 Sum of Mulliken charges =  -0.00000
 Mulliken charges with hydrogens summed into heavy atoms:
               1
     1  O   -0.163696
     2  C   -0.219867
     3  C   -0.092644
     4  C    0.267548
     5  C   -0.288276
     6  C   -0.309189
     7  C    0.406115
     8  C   -0.687624
     9  C    0.149396
    10  C   -0.116449
    11  C    0.453680
    26  C   -0.121368
    28  C    1.358181
    29  C   -0.349769
    30  C    0.048455
    31  C   -0.310360
    33  C   -0.661410
    35  C    0.617231
    38  C    0.020045
 Electronic spatial extent (au):  <R**2>=           6102.9945
 Charge=             -0.0000 electrons
 Dipole moment (field-independent basis, Debye):
    X=             -2.0471    Y=             -1.7412    Z=              0.6834  Tot=              2.7730
 Calling FoFJK, ICntrl=      2127 FMM=F ISym2X=0 I1Cent= 0 IOpClX= 0 NMat=1 NMatS=1 NMatT=0.

 GradGradGradGradGradGradGradGradGradGradGradGradGradGradGradGradGradGrad
 FormGI is forming the generalized inverse of G from B-inverse, IUseBI=4.
 Internal  Forces:  Max     0.287298126 RMS     0.035749846
 Step number   1 out of a maximum of  200
 All quantities printed in internal units (Hartrees-Bohrs-Radians)
 Mixed Optimization -- RFO/linear search
 Second derivative matrix not updated -- first step.
 ITU=  0
     Eigenvalues ---    0.00301   0.00330   0.00367   0.00498   0.00553
     Eigenvalues ---    0.00605   0.00982   0.01207   0.01385   0.01582
     Eigenvalues ---    0.01671   0.01724   0.01886   0.01891   0.01937
     Eigenvalues ---    0.01945   0.01967   0.01974   0.01988   0.01998
     Eigenvalues ---    0.02343   0.02589   0.03253   0.03687   0.03978
     Eigenvalues ---    0.04190   0.04530   0.04780   0.05211   0.05270
     Eigenvalues ---    0.05343   0.05414   0.05617   0.05635   0.05681
     Eigenvalues ---    0.05774   0.06043   0.06634   0.06980   0.07058
     Eigenvalues ---    0.07114   0.07180   0.07634   0.09011   0.09322
     Eigenvalues ---    0.10974   0.12031   0.13028   0.15985   0.15996
     Eigenvalues ---    0.15999   0.15999   0.16000   0.16000   0.16000
     Eigenvalues ---    0.16000   0.16000   0.16000   0.16000   0.16000
     Eigenvalues ---    0.16000   0.16000   0.16000   0.16000   0.16000
     Eigenvalues ---    0.17914   0.20864   0.21998   0.22002   0.22954
     Eigenvalues ---    0.23120   0.23998   0.24854   0.24993   0.24994
     Eigenvalues ---    0.24998   0.25000   0.25069   0.26751   0.28050
     Eigenvalues ---    0.28953   0.29154   0.29341   0.30725   0.30743
     Eigenvalues ---    0.31133   0.33252   0.33297   0.33350   0.33372
     Eigenvalues ---    0.33400   0.33436   0.33460   0.33465   0.33476
     Eigenvalues ---    0.33489   0.33501   0.33509   0.33515   0.33589
     Eigenvalues ---    0.33592   0.33642   0.33766   0.33774   0.34131
     Eigenvalues ---    0.34196   0.34209   0.34555   0.36139   0.40043
     Eigenvalues ---    0.40220   0.43253   0.43381   0.44111   0.44962
     Eigenvalues ---    0.52514   0.90891
 Linear search not attempted -- first point.
 Maximum step size (   0.100) exceeded in Quadratic search.
    -- Step size scaled by   0.126
 Iteration  1 RMS(Cart)=  0.10394476 RMS(Int)=  0.00145773
 Iteration  2 RMS(Cart)=  0.00483870 RMS(Int)=  0.00000841
 Iteration  3 RMS(Cart)=  0.00001268 RMS(Int)=  0.00000780
 Iteration  4 RMS(Cart)=  0.00000000 RMS(Int)=  0.00000780
 Variable       Old X    -DE/DX   Delta X   Delta X   Delta X     New X
                                 (Linear)    (Quad)   (Total)
    R1        2.32525  -0.04635   0.00000  -0.00426  -0.00426   2.32099
    R2        2.95425  -0.00797   0.00000  -0.00175  -0.00175   2.95250
    R3        2.95330  -0.00832   0.00000  -0.00185  -0.00185   2.95144
    R4        2.89684   0.00245   0.00000   0.00041   0.00041   2.89725
    R5        2.90101   0.00223   0.00000   0.00037   0.00037   2.90138
    R6        2.95548  -0.00394   0.00000  -0.00067  -0.00067   2.95481
    R7        2.89245  -0.00796   0.00000  -0.00097  -0.00097   2.89148
    R8        2.86506   0.00115   0.00000   0.00019   0.00019   2.86525
    R9        2.94323   0.00042   0.00000   0.00005   0.00005   2.94328
   R10        2.85892   0.02242   0.00000   0.00357   0.00358   2.86250
   R11        2.07939  -0.00524   0.00000  -0.00083  -0.00083   2.07856
   R12        2.95665  -0.01054   0.00000  -0.00184  -0.00185   2.95480
   R13        2.08200  -0.00596   0.00000  -0.00094  -0.00094   2.08106
   R14        2.08167  -0.00581   0.00000  -0.00092  -0.00092   2.08075
   R15        2.08030  -0.00638   0.00000  -0.00101  -0.00101   2.07929
   R16        2.08180  -0.00634   0.00000  -0.00100  -0.00100   2.08079
   R17        2.84323   0.05325   0.00000   0.00910   0.00911   2.85234
   R18        2.57410   0.08726   0.00000   0.01115   0.01115   2.58525
   R19        2.07726  -0.00628   0.00000  -0.00099  -0.00099   2.07627
   R20        2.08402  -0.00506   0.00000  -0.00080  -0.00080   2.08322
   R21        2.08532  -0.00608   0.00000  -0.00097  -0.00097   2.08436
   R22        2.08612  -0.00588   0.00000  -0.00093  -0.00093   2.08519
   R23        2.08292  -0.00711   0.00000  -0.00113  -0.00113   2.08179
   R24        2.08224  -0.00532   0.00000  -0.00084  -0.00084   2.08139
   R25        2.08251  -0.00582   0.00000  -0.00092  -0.00092   2.08158
   R26        2.08354  -0.00581   0.00000  -0.00092  -0.00092   2.08262
   R27        2.08156  -0.00565   0.00000  -0.00089  -0.00089   2.08067
   R28        2.07714  -0.00483   0.00000  -0.00076  -0.00076   2.07637
   R29        2.77165   0.06078   0.00000   0.00932   0.00932   2.78096
   R30        2.67686  -0.00563   0.00000  -0.00074  -0.00074   2.67612
   R31        2.67775   0.00658   0.00000   0.00097   0.00097   2.67873
   R32        2.65562  -0.00515   0.00000  -0.00070  -0.00070   2.65492
   R33        2.06404  -0.03818   0.00000  -0.00597  -0.00597   2.05807
   R34        2.65130  -0.01774   0.00000  -0.00247  -0.00247   2.64883
   R35        2.07001  -0.00628   0.00000  -0.00099  -0.00099   2.06903
   R36        2.66628  -0.02252   0.00000  -0.00319  -0.00319   2.66308
   R37        2.06979  -0.00611   0.00000  -0.00096  -0.00096   2.06883
   R38        2.66932  -0.02435   0.00000  -0.00348  -0.00348   2.66584
   R39        2.07110  -0.00679   0.00000  -0.00107  -0.00107   2.07003
   R40        2.85759  -0.00191   0.00000  -0.00031  -0.00031   2.85728
   R41        2.08242  -0.00479   0.00000  -0.00076  -0.00076   2.08166
   R42        2.08024  -0.00581   0.00000  -0.00092  -0.00092   2.07932
   R43        2.08442  -0.00498   0.00000  -0.00079  -0.00079   2.08363
    A1        1.65067  -0.00351   0.00000  -0.00106  -0.00106   1.64961
    A2        1.98720  -0.00140   0.00000  -0.00007  -0.00007   1.98713
    A3        1.97476   0.00540   0.00000   0.00111   0.00112   1.97587
    A4        1.97983   0.00351   0.00000   0.00079   0.00079   1.98062
    A5        1.96702   0.00045   0.00000   0.00024   0.00024   1.96726
    A6        1.89720  -0.00389   0.00000  -0.00090  -0.00090   1.89630
    A7        1.78039   0.00602   0.00000   0.00145   0.00145   1.78185
    A8        1.74496   0.00500   0.00000   0.00090   0.00089   1.74586
    A9        2.07628  -0.00601   0.00000  -0.00133  -0.00133   2.07495
   A10        1.80830  -0.00053   0.00000  -0.00020  -0.00020   1.80811
   A11        2.01203  -0.00126   0.00000  -0.00031  -0.00032   2.01171
   A12        2.00120  -0.00152   0.00000  -0.00017  -0.00016   2.00104
   A13        1.78826  -0.00214   0.00000  -0.00000  -0.00001   1.78825
   A14        1.76554   0.02520   0.00000   0.00519   0.00519   1.77073
   A15        2.00479  -0.00584   0.00000  -0.00134  -0.00133   2.00345
   A16        1.83987   0.00138   0.00000   0.00022   0.00022   1.84009
   A17        2.01924   0.00009   0.00000  -0.00031  -0.00032   2.01892
   A18        2.01422  -0.01437   0.00000  -0.00280  -0.00280   2.01141
   A19        1.82638  -0.00609   0.00000  -0.00134  -0.00134   1.82504
   A20        1.90793   0.00026   0.00000   0.00006   0.00006   1.90799
   A21        1.93697   0.00415   0.00000   0.00089   0.00089   1.93786
   A22        1.95282  -0.00074   0.00000  -0.00002  -0.00002   1.95280
   A23        1.96715   0.00396   0.00000   0.00071   0.00070   1.96786
   A24        1.87288  -0.00149   0.00000  -0.00029  -0.00029   1.87259
   A25        1.78811   0.00333   0.00000   0.00034   0.00035   1.78846
   A26        1.94392  -0.00289   0.00000  -0.00040  -0.00040   1.94352
   A27        1.94153   0.00072   0.00000   0.00016   0.00016   1.94169
   A28        1.95800   0.00484   0.00000   0.00095   0.00095   1.95895
   A29        1.95007  -0.00624   0.00000  -0.00102  -0.00101   1.94905
   A30        1.88262   0.00024   0.00000  -0.00004  -0.00004   1.88258
   A31        1.83454  -0.04050   0.00000  -0.00762  -0.00761   1.82693
   A32        2.30979  -0.20236   0.00000  -0.03569  -0.03570   2.27409
   A33        2.13878   0.24277   0.00000   0.04330   0.04329   2.18207
   A34        2.22175  -0.10084   0.00000  -0.01791  -0.01791   2.20384
   A35        2.22772   0.08804   0.00000   0.01560   0.01561   2.24333
   A36        1.83364   0.01290   0.00000   0.00233   0.00233   1.83597
   A37        1.97918   0.00115   0.00000   0.00024   0.00024   1.97941
   A38        1.91580   0.00068   0.00000   0.00013   0.00013   1.91593
   A39        1.92188   0.00151   0.00000   0.00031   0.00031   1.92219
   A40        1.88425  -0.00105   0.00000  -0.00022  -0.00022   1.88403
   A41        1.88201  -0.00131   0.00000  -0.00026  -0.00026   1.88175
   A42        1.87754  -0.00118   0.00000  -0.00024  -0.00024   1.87730
   A43        1.92030   0.00076   0.00000   0.00015   0.00015   1.92045
   A44        1.96348   0.00189   0.00000   0.00039   0.00039   1.96387
   A45        1.92731   0.00097   0.00000   0.00020   0.00020   1.92750
   A46        1.88199  -0.00128   0.00000  -0.00026  -0.00026   1.88173
   A47        1.88118  -0.00118   0.00000  -0.00025  -0.00025   1.88093
   A48        1.88707  -0.00138   0.00000  -0.00028  -0.00028   1.88680
   A49        1.92235   0.00085   0.00000   0.00017   0.00017   1.92252
   A50        1.93388   0.00103   0.00000   0.00021   0.00021   1.93409
   A51        1.93923   0.00117   0.00000   0.00024   0.00024   1.93947
   A52        1.89195  -0.00098   0.00000  -0.00020  -0.00020   1.89175
   A53        1.87499  -0.00102   0.00000  -0.00021  -0.00021   1.87478
   A54        1.89982  -0.00118   0.00000  -0.00024  -0.00024   1.89958
   A55        2.01954  -0.13942   0.00000  -0.02578  -0.02579   1.99375
   A56        2.21592   0.28730   0.00000   0.05322   0.05321   2.26913
   A57        2.04724  -0.14881   0.00000  -0.02769  -0.02770   2.01954
   A58        2.14068   0.16627   0.00000   0.02948   0.02947   2.17015
   A59        2.07942  -0.12327   0.00000  -0.02190  -0.02191   2.05752
   A60        2.06286  -0.04305   0.00000  -0.00759  -0.00758   2.05528
   A61        2.10298   0.01432   0.00000   0.00268   0.00268   2.10566
   A62        2.09161   0.00282   0.00000   0.00069   0.00069   2.09229
   A63        2.08780  -0.01722   0.00000  -0.00338  -0.00339   2.08441
   A64        2.10914   0.02929   0.00000   0.00538   0.00539   2.11452
   A65        2.07925  -0.01325   0.00000  -0.00241  -0.00241   2.07684
   A66        2.09476  -0.01605   0.00000  -0.00298  -0.00298   2.09178
   A67        2.11810   0.01159   0.00000   0.00204   0.00204   2.12014
   A68        2.08342  -0.00607   0.00000  -0.00108  -0.00108   2.08234
   A69        2.08157  -0.00554   0.00000  -0.00097  -0.00097   2.08060
   A70        2.11285  -0.00027   0.00000  -0.00022  -0.00023   2.11263
   A71        2.08566  -0.00029   0.00000   0.00002   0.00003   2.08568
   A72        2.08465   0.00057   0.00000   0.00020   0.00020   2.08485
   A73        2.05984  -0.01198   0.00000  -0.00232  -0.00233   2.05752
   A74        2.11870   0.00700   0.00000   0.00134   0.00134   2.12004
   A75        2.10464   0.00498   0.00000   0.00098   0.00098   2.10562
   A76        1.93753   0.00115   0.00000   0.00023   0.00023   1.93776
   A77        1.93969   0.00017   0.00000   0.00004   0.00004   1.93973
   A78        1.93394   0.00078   0.00000   0.00016   0.00016   1.93410
   A79        1.88870  -0.00062   0.00000  -0.00012  -0.00012   1.88857
   A80        1.87741  -0.00106   0.00000  -0.00022  -0.00022   1.87720
   A81        1.88432  -0.00054   0.00000  -0.00011  -0.00011   1.88421
    D1       -0.91766  -0.00268   0.00000  -0.00055  -0.00056  -0.91822
    D2        0.93867  -0.00039   0.00000  -0.00016  -0.00016   0.93851
    D3        3.13013  -0.00200   0.00000  -0.00046  -0.00046   3.12967
    D4        1.14432  -0.00104   0.00000  -0.00025  -0.00026   1.14407
    D5        3.00065   0.00125   0.00000   0.00014   0.00014   3.00079
    D6       -1.09108  -0.00036   0.00000  -0.00016  -0.00016  -1.09124
    D7       -2.96114  -0.00303   0.00000  -0.00062  -0.00062  -2.96176
    D8       -1.10481  -0.00074   0.00000  -0.00022  -0.00022  -1.10504
    D9        1.08665  -0.00235   0.00000  -0.00053  -0.00052   1.08612
   D10        0.96345  -0.00015   0.00000   0.00013   0.00012   0.96357
   D11       -0.93422  -0.00857   0.00000  -0.00167  -0.00167  -0.93589
   D12       -3.11566  -0.00520   0.00000  -0.00109  -0.00110  -3.11676
   D13       -1.10453   0.00218   0.00000   0.00052   0.00052  -1.10401
   D14       -3.00219  -0.00624   0.00000  -0.00127  -0.00127  -3.00347
   D15        1.09955  -0.00288   0.00000  -0.00070  -0.00070   1.09885
   D16        3.01327   0.00427   0.00000   0.00091   0.00091   3.01418
   D17        1.11561  -0.00415   0.00000  -0.00088  -0.00088   1.11472
   D18       -1.06583  -0.00078   0.00000  -0.00031  -0.00031  -1.06614
   D19       -0.85369   0.00189   0.00000   0.00050   0.00050  -0.85319
   D20       -2.96260   0.00198   0.00000   0.00052   0.00052  -2.96208
   D21        1.25672   0.00209   0.00000   0.00055   0.00055   1.25727
   D22        1.00799  -0.00120   0.00000  -0.00039  -0.00039   1.00760
   D23       -1.10092  -0.00112   0.00000  -0.00037  -0.00037  -1.10129
   D24        3.11840  -0.00100   0.00000  -0.00034  -0.00035   3.11806
   D25       -3.07232  -0.00108   0.00000  -0.00020  -0.00020  -3.07252
   D26        1.10196  -0.00099   0.00000  -0.00018  -0.00018   1.10178
   D27       -0.96191  -0.00088   0.00000  -0.00015  -0.00015  -0.96206
   D28        3.00317   0.00015   0.00000  -0.00014  -0.00014   3.00303
   D29        0.90449  -0.00001   0.00000  -0.00018  -0.00018   0.90431
   D30       -1.20557  -0.00022   0.00000  -0.00023  -0.00023  -1.20580
   D31        1.15598   0.00118   0.00000   0.00040   0.00040   1.15638
   D32       -0.94270   0.00102   0.00000   0.00036   0.00036  -0.94234
   D33       -3.05276   0.00081   0.00000   0.00031   0.00031  -3.05245
   D34       -1.05429  -0.00073   0.00000  -0.00011  -0.00011  -1.05440
   D35        3.13022  -0.00089   0.00000  -0.00015  -0.00015   3.13006
   D36        1.02016  -0.00110   0.00000  -0.00020  -0.00020   1.01995
   D37        0.55629  -0.00072   0.00000  -0.00003  -0.00003   0.55626
   D38       -1.53797   0.00340   0.00000   0.00070   0.00070  -1.53727
   D39        2.68280   0.00257   0.00000   0.00048   0.00048   2.68328
   D40       -1.25046  -0.00771   0.00000  -0.00137  -0.00136  -1.25183
   D41        2.93846  -0.00359   0.00000  -0.00064  -0.00063   2.93783
   D42        0.87605  -0.00442   0.00000  -0.00086  -0.00085   0.87519
   D43        2.83200  -0.00456   0.00000  -0.00081  -0.00081   2.83120
   D44        0.73774  -0.00044   0.00000  -0.00008  -0.00007   0.73767
   D45       -1.32467  -0.00127   0.00000  -0.00030  -0.00030  -1.32497
   D46        2.53443  -0.01368   0.00000  -0.00353  -0.00353   2.53091
   D47       -0.61969  -0.00476   0.00000  -0.00121  -0.00121  -0.62091
   D48       -1.91498  -0.00595   0.00000  -0.00178  -0.00177  -1.91675
   D49        1.21408   0.00297   0.00000   0.00055   0.00055   1.21462
   D50        0.29261  -0.00892   0.00000  -0.00243  -0.00242   0.29019
   D51       -2.86152  -0.00000   0.00000  -0.00010  -0.00011  -2.86162
   D52       -3.09878   0.00047   0.00000   0.00020   0.00020  -3.09858
   D53        1.09113   0.00047   0.00000   0.00020   0.00020   1.09134
   D54       -1.02323   0.00047   0.00000   0.00020   0.00020  -1.02303
   D55        1.06163  -0.00172   0.00000  -0.00043  -0.00043   1.06120
   D56       -1.03165  -0.00171   0.00000  -0.00042  -0.00042  -1.03207
   D57        3.13718  -0.00171   0.00000  -0.00042  -0.00042   3.13675
   D58       -1.03640   0.00126   0.00000   0.00023   0.00023  -1.03617
   D59       -3.12967   0.00127   0.00000   0.00023   0.00023  -3.12944
   D60        1.03915   0.00127   0.00000   0.00023   0.00023   1.03938
   D61       -0.64097  -0.00419   0.00000  -0.00100  -0.00101  -0.64198
   D62       -2.73734  -0.01042   0.00000  -0.00213  -0.00213  -2.73947
   D63        1.44493  -0.00926   0.00000  -0.00192  -0.00192   1.44301
   D64        1.19960   0.02274   0.00000   0.00468   0.00467   1.20427
   D65       -0.89676   0.01651   0.00000   0.00355   0.00355  -0.89322
   D66       -2.99769   0.01767   0.00000   0.00376   0.00376  -2.99393
   D67       -2.83566   0.00479   0.00000   0.00089   0.00089  -2.83478
   D68        1.35116  -0.00145   0.00000  -0.00024  -0.00024   1.35092
   D69       -0.74976  -0.00028   0.00000  -0.00002  -0.00003  -0.74979
   D70        0.58321  -0.00252   0.00000  -0.00053  -0.00051   0.58269
   D71       -2.54534   0.00340   0.00000   0.00112   0.00108  -2.54426
   D72       -1.27400  -0.00932   0.00000  -0.00238  -0.00237  -1.27637
   D73        1.88064  -0.00340   0.00000  -0.00073  -0.00077   1.87987
   D74        2.75828   0.00003   0.00000  -0.00008  -0.00006   2.75822
   D75       -0.37026   0.00596   0.00000   0.00157   0.00153  -0.36873
   D76        0.04921   0.00337   0.00000   0.00066   0.00067   0.04988
   D77        2.13576   0.00427   0.00000   0.00086   0.00086   2.13662
   D78       -2.03072   0.00355   0.00000   0.00076   0.00076  -2.02996
   D79        2.11318  -0.00034   0.00000  -0.00007  -0.00006   2.11312
   D80       -2.08345   0.00056   0.00000   0.00013   0.00013  -2.08333
   D81        0.03326  -0.00015   0.00000   0.00003   0.00003   0.03329
   D82       -2.05737   0.00004   0.00000   0.00005   0.00005  -2.05732
   D83        0.02918   0.00094   0.00000   0.00025   0.00025   0.02942
   D84        2.14589   0.00023   0.00000   0.00015   0.00015   2.14603
   D85       -3.13018   0.01305   0.00000   0.00338   0.00343  -3.12675
   D86        0.02401   0.00591   0.00000   0.00137   0.00137   0.02538
   D87       -0.00002   0.00398   0.00000   0.00125   0.00123   0.00121
   D88       -3.12903  -0.00316   0.00000  -0.00076  -0.00083  -3.12985
   D89        0.43402  -0.00802   0.00000  -0.00213  -0.00215   0.43187
   D90       -2.67287   0.02911   0.00000   0.00769   0.00768  -2.66519
   D91       -2.69263   0.00124   0.00000   0.00019   0.00020  -2.69242
   D92        0.48367   0.03837   0.00000   0.01001   0.01003   0.49370
   D93       -0.48672  -0.03056   0.00000  -0.00810  -0.00810  -0.49482
   D94        2.67831  -0.02714   0.00000  -0.00724  -0.00723   2.67108
   D95        2.69006   0.00676   0.00000   0.00179   0.00178   2.69184
   D96       -0.42810   0.01017   0.00000   0.00265   0.00265  -0.42545
   D97        3.13543   0.00160   0.00000   0.00027   0.00028   3.13572
   D98       -0.04933  -0.00111   0.00000  -0.00040  -0.00040  -0.04973
   D99       -0.02938  -0.00284   0.00000  -0.00077  -0.00077  -0.03015
   D100       3.06904  -0.00555   0.00000  -0.00145  -0.00145   3.06759
   D101      -3.12691   0.00257   0.00000   0.00050   0.00051  -3.12640
   D102       0.00519   0.00035   0.00000  -0.00005  -0.00003   0.00515
   D103       0.03706   0.00293   0.00000   0.00081   0.00081   0.03787
   D104      -3.11402   0.00071   0.00000   0.00026   0.00026  -3.11376
   D105       0.00244   0.00176   0.00000   0.00040   0.00041   0.00285
   D106       3.12918   0.00040   0.00000   0.00008   0.00008   3.12926
   D107      -3.09608   0.00397   0.00000   0.00098   0.00098  -3.09509
   D108       0.03066   0.00261   0.00000   0.00066   0.00066   0.03132
   D109      -0.01788  -0.00154   0.00000  -0.00041  -0.00041  -0.01829
   D110       3.13249  -0.00165   0.00000  -0.00042  -0.00042   3.13208
   D111       3.13328   0.00069   0.00000   0.00014   0.00014   3.13343
   D112       0.00047   0.00057   0.00000   0.00013   0.00013   0.00061
   D113       0.01724   0.00064   0.00000   0.00018   0.00018   0.01742
   D114      -3.12878  -0.00024   0.00000  -0.00005  -0.00005  -3.12883
   D115      -3.10951   0.00200   0.00000   0.00050   0.00050  -3.10901
   D116       0.02766   0.00112   0.00000   0.00027   0.00027   0.02793
   D117      -0.00956  -0.00084   0.00000  -0.00019  -0.00020  -0.00976
   D118       3.13642   0.00003   0.00000   0.00003   0.00003   3.13644
   D119       3.12325  -0.00073   0.00000  -0.00019  -0.00019   3.12307
   D120      -0.01395   0.00014   0.00000   0.00003   0.00003  -0.01392
   D121      -2.21254   0.00039   0.00000   0.00010   0.00010  -2.21244
   D122      -0.10949   0.00049   0.00000   0.00012   0.00012  -0.10936
   D123       1.98563   0.00045   0.00000   0.00011   0.00011   1.98575
   D124       0.92452  -0.00056   0.00000  -0.00014  -0.00014   0.92437
   D125       3.02757  -0.00045   0.00000  -0.00012  -0.00012   3.02745
   D126      -1.16050  -0.00050   0.00000  -0.00013  -0.00013  -1.16062
         Item               Value     Threshold  Converged?
 Maximum Force            0.287298     0.000450     NO 
 RMS     Force            0.035750     0.000300     NO 
 Maximum Displacement     0.408409     0.001800     NO 
 RMS     Displacement     0.107255     0.001200     NO 
 GradGradGradGradGradGradGradGradGradGradGradGradGradGradGradGradGradGrad

                    Distance matrix (angstroms):
                    1          2          3          4          5
     1  O    0.000000
     2  C    3.498406   0.000000
     3  C    2.464412   1.562397   0.000000
     4  C    3.598923   1.561837   2.294481   0.000000
     5  C    3.346331   2.430954   1.563617   2.433633   0.000000
     6  C    4.027029   2.432046   2.473785   1.557518   1.563613
     7  C    2.469124   2.381933   2.414546   1.514770   2.854259
     8  C    1.228217   2.369609   1.530106   2.394006   2.431258
     9  C    4.899623   1.533158   2.594048   2.588069   2.971374
[...]
   D88        3.13576   0.00041  -0.00612   0.04941   0.04356  -3.10386
   D89        0.18671  -0.00409  -0.09497  -0.07925  -0.17420   0.01251
   D90       -2.86727  -0.00393  -0.08575  -0.09425  -0.17991  -3.04717
   D91       -2.93270  -0.00434  -0.09497  -0.08836  -0.18342  -3.11612
   D92        0.29651  -0.00418  -0.08574  -0.10335  -0.18912   0.10739
   D93       -0.42733   0.00180   0.03301   0.11701   0.15001  -0.27732
   D94        2.71276   0.00181   0.02213   0.13337   0.15558   2.86833
   D95        2.80115   0.00191   0.04173   0.10212   0.14377   2.94492
   D96       -0.34194   0.00192   0.03085   0.11847   0.14933  -0.19261
   D97        3.11856   0.00019  -0.00702   0.02225   0.01530   3.13385
   D98       -0.03654   0.00079   0.00549   0.04301   0.04839   0.01185
   D99       -0.02151   0.00018   0.00401   0.00564   0.00967  -0.01184
   D100       3.10657   0.00078   0.01652   0.02640   0.04277  -3.13384
   D101      -3.11036  -0.00015   0.00588  -0.01830  -0.01240  -3.12276
   D102       0.01875  -0.00002   0.00536  -0.01001  -0.00461   0.01413
   D103       0.02988  -0.00014  -0.00378  -0.00353  -0.00736   0.02252
   D104      -3.12420  -0.00002  -0.00431   0.00476   0.00043  -3.12377
   D105       0.00059  -0.00011  -0.00122  -0.00465  -0.00585  -0.00525
   D106       3.13641   0.00010   0.00276   0.00274   0.00551  -3.14126
   D107      -3.12745  -0.00070  -0.01355  -0.02547  -0.03916   3.11658
   D108       0.00837  -0.00050  -0.00958  -0.01809  -0.02780  -0.01942
   D109      -0.01721   0.00003   0.00074   0.00026   0.00102  -0.01619
   D110       3.13200   0.00003   0.00030   0.00111   0.00142   3.13342
   D111       3.13691  -0.00010   0.00125  -0.00806  -0.00680   3.13011
   D112       0.00294  -0.00010   0.00081  -0.00721  -0.00641  -0.00347
   D113       0.01270  -0.00002  -0.00200   0.00133  -0.00070   0.01201
   D114      -3.12813   0.00004   0.00031   0.00210   0.00240  -3.12573
   D115      -3.12309  -0.00022  -0.00595  -0.00609  -0.01211  -3.13520
   D116       0.01926  -0.00017  -0.00364  -0.00532  -0.00901   0.01025
   D117      -0.00445   0.00006   0.00225   0.00084   0.00309  -0.00135
   D118       3.13640   0.00001  -0.00004   0.00007   0.00001   3.13641
   D119       3.12951   0.00006   0.00269  -0.00001   0.00270   3.13220
   D120      -0.01284   0.00001   0.00040  -0.00077  -0.00038  -0.01322
   D121      -2.21712  -0.00009  -0.00193  -0.00222  -0.00415  -2.22128
   D122      -0.11318  -0.00005  -0.00160  -0.00181  -0.00342  -0.11660
   D123       1.98233   0.00000  -0.00144  -0.00100  -0.00245   1.97988
   D124       0.92525  -0.00003   0.00046  -0.00142  -0.00095   0.92429
   D125       3.02919   0.00001   0.00078  -0.00101  -0.00022   3.02898
   D126      -1.15849   0.00006   0.00094  -0.00020   0.00075  -1.15773
         Item               Value     Threshold  Converged?
 Maximum Force            0.010043     0.000450     NO 
 RMS     Force            0.001092     0.000300     NO 
 Maximum Displacement     0.545096     0.001800     NO 
 RMS     Displacement     0.112624     0.001200     NO 
 GradGradGradGradGradGradGradGradGradGradGradGradGradGradGradGradGradGrad

                    Distance matrix (angstroms):
                    1          2          3          4          5
     1  O    0.000000
     2  C    3.500219   0.000000
     3  C    2.444829   1.572514   0.000000
     4  C    3.572363   1.562295   2.278524   0.000000
     5  C    3.325190   2.443697   1.568092   2.424423   0.000000
     6  C    4.007264   2.433034   2.466578   1.555098   1.555950
     7  C    2.453934   2.411910   2.418481   1.520446   2.856199
     8  C    1.213201   2.385391   1.538777   2.377489   2.445956
     9  C    4.903526   1.535852   2.613562   2.600393   2.993204
    10  C    3.749115   1.537722   2.602269   2.585795   3.864256
    11  C    2.904708   2.665302   1.516529   3.752380   2.601308
    12  H    4.505077   2.260605   3.321182   1.090827   3.416465
    13  H    4.223604   2.907793   2.192927   3.199509   1.091088
    14  H    3.154997   3.387882   2.212319   3.174485   1.091127
    15  H    4.230117   3.390261   3.251124   2.199162   2.215987
    16  H    5.034937   2.854375   3.191988   2.201021   2.207495
    17  H    5.245872   2.213493   2.842302   2.882008   2.641778
    18  H    5.667739   2.167623   3.543045   2.880268   3.871827
    19  H    5.216247   2.173913   2.964912   3.540154   3.595972
    20  H    4.705834   2.172596   3.539805   2.892405   4.598659
    21  H    3.167250   2.207132   2.832397   2.825343   4.175894
    22  H    4.134940   2.179202   2.933880   3.530649   4.320545
    23  H    2.785088   3.584903   2.157944   4.416509   2.866468
    24  H    3.974196   2.966345   2.163165   4.191783   2.859957
    25  H    2.991258   2.943249   2.169188   4.176182   3.548134
    26  C    3.188432   3.641267   3.755409   2.522588   4.063438
    27  H    4.227081   3.959445   4.396081   2.628246   4.536553
    28  C    3.479679   4.945592   4.809798   3.954241   5.157957
    29  C    3.055888   5.447775   5.007954   4.767924   5.544880
    30  C    4.871771   6.080149   6.083754   4.899806   6.258523
    31  C    4.239305   6.835967   6.349597   6.130870   6.838403
    32  H    2.144212   4.951646   4.333801   4.552799   5.047611
    33  C    5.684985   7.348402   7.224005   6.234147   7.423212
    34  H    5.502426   6.118589   6.327667   4.791488   6.367060
    35  C    5.448233   7.702718   7.364581   6.787478   7.702089
    36  H    4.447798   7.388449   6.756651   6.854363   7.334988
    37  H    6.740522   8.217643   8.175643   7.014955   8.287284
    38  C    6.749181   9.187329   8.790743   8.292753   9.119869
    39  H    7.507854   9.718742   9.469222   8.802702   9.852286
    40  H    6.760488   9.476958   8.968912   8.728358   9.399734
    41  H    7.248841   9.703075   9.237177   8.712934   9.396317
                    6          7          8          9         10
     6  C    0.000000
     7  C    2.450528   0.000000
     8  C    2.912555   1.497765   0.000000
     9  C    2.949029   3.831388   3.819198   0.000000
    10  C    3.852532   2.939007   2.898828   2.486816   0.000000
    11  C    3.852455   3.798333   2.565640   3.272299   3.249973
    12  H    2.236552   2.205150   3.350848   2.960273   2.930823
    13  H    2.207610   3.882799   3.407084   2.908496   4.358284
    14  H    2.220279   3.167599   2.601159   4.075762   4.686571
    15  H    1.089196   2.625324   3.285894   4.026720   4.692879
    16  H    1.091189   3.420210   3.911571   2.793239   4.300514
    17  H    2.627838   4.183206   4.160416   1.089134   3.471615
    18  H    3.436187   4.237546   4.535802   1.093644   2.737216
    19  H    3.898459   4.579630   4.280502   1.092205   2.687561
    20  H    4.267226   3.469982   3.799975   2.719973   1.093120
    21  H    4.184010   2.591769   2.537027   3.468116   1.090628
    22  H    4.604136   3.863794   3.471963   2.717561   1.092416
    23  H    4.298606   4.213589   2.820107   4.260776   4.211248
    24  H    4.109365   4.569316   3.509638   3.024044   3.672667
    25  H    4.616702   4.078415   2.839410   3.645724   2.971823
    26  C    3.407496   1.348265   2.611053   5.012670   3.896003
    27  H    3.527655   2.045062   3.501292   5.139150   4.236894
    28  C    4.695645   2.596371   3.403220   6.388577   5.026831
    29  C    5.458397   3.261124   3.473635   6.966025   5.398511
    30  C    5.563161   3.752226   4.750191   7.436313   6.171594
    31  C    6.761862   4.634070   4.812614   8.355770   6.727832
    32  H    5.233504   3.051884   2.811511   6.477111   4.871723
    33  C    6.843895   4.992526   5.798590   8.749611   7.363320
    34  H    5.428791   3.928538   5.158994   7.343804   6.287901
    35  C    7.393403   5.379963   5.850789   9.184939   7.631273
    36  H    7.456285   5.335015   5.240429   8.917366   7.217505
    37  H    7.585489   5.881926   6.793290   9.565103   8.249048
    38  C    8.858189   6.875908   7.266010  10.678864   9.074710
    39  H    9.480761   7.437477   7.948867  11.197110   9.497723
    40  H    9.305708   7.252199   7.435535  10.996856   9.297788
    41  H    9.112954   7.332976   7.744662  11.163602   9.739926
                   11         12         13         14         15
    11  C    0.000000
    12  H    4.745018   0.000000
    13  H    2.741680   4.081560   0.000000
    14  H    3.000595   4.175940   1.751950   0.000000
    15  H    4.641118   2.693420   2.943869   2.398632   0.000000
    16  H    4.429459   2.519808   2.367377   2.973590   1.757349
    17  H    3.507497   3.300585   2.264119   3.703451   3.678733
    18  H    4.306715   2.822348   3.845780   4.955831   4.434430
    19  H    3.099497   3.961939   3.346420   4.620523   4.985681
    20  H    4.281947   2.821140   5.050538   5.490183   5.081105
    21  H    3.501361   3.210096   4.863051   4.805512   4.843975
    22  H    3.047324   3.952153   4.630850   5.135953   5.521008
    23  H    1.091536   5.474835   3.025377   2.860451   4.907776
    24  H    1.092198   5.108809   2.571765   3.405581   5.004423
    25  H    1.091512   5.078022   3.774782   3.964611   5.415494
    26  C    5.085305   2.731841   5.113634   4.207377   3.222244
    27  H    5.820269   2.401100   5.514503   4.801718   3.275697
    28  C    5.962349   4.186299   6.244810   5.057363   4.343887
    29  C    5.871615   5.209318   6.618251   5.294205   5.189551
    30  C    7.314316   4.890711   7.331343   6.138773   5.034956
    31  C    7.124302   6.518501   7.907300   6.480095   6.389851
    32  H    5.003241   5.167051   6.074976   4.800458   5.132635
    33  C    8.347345   6.269614   8.506662   7.179608   6.262320
    34  H    7.676425   4.570415   7.395084   6.352276   4.856769
    35  C    8.289231   7.002304   8.787972   7.353279   6.881326
    36  H    7.327278   7.338165   8.367167   6.910733   7.142015
    37  H    9.354139   6.934514   9.357262   8.051253   6.933774
    38  C    9.635694   8.504030  10.197598   8.697912   8.303342
    39  H   10.359479   8.898453  10.940220   9.512239   8.944908
    40  H    9.660670   9.035846  10.460204   8.938217   8.818479
    41  H   10.119303   8.935791  10.457810   8.887720   8.450661
                   16         17         18         19         20
    16  H    0.000000
    17  H    2.201189   0.000000
    18  H    3.104627   1.761021   0.000000
    19  H    3.784535   1.759291   1.759669   0.000000
    20  H    4.540987   3.751011   2.513544   3.008786   0.000000
    21  H    4.837460   4.364204   3.749980   3.711565   1.760835
    22  H    4.987000   3.724455   3.081293   2.457748   1.760796
    23  H    4.965509   4.339800   5.315056   4.138464   5.271465
    24  H    4.434699   3.102330   4.089078   2.626943   4.581811
    25  H    5.219914   4.144361   4.562200   3.301832   4.023264
    26  C    4.314357   5.375477   5.239255   5.809108   4.203877
    27  H    4.236593   5.474505   5.156480   6.039704   4.283847
    28  C    5.658968   6.758396   6.663054   7.112322   5.387617
    29  C    6.504026   7.373094   7.388217   7.535666   5.941847
    30  C    6.422359   7.761511   7.579022   8.244785   6.363395
    31  C    7.805752   8.753589   8.767079   8.913035   7.240302
    32  H    6.302902   6.909646   7.012535   6.927614   5.566982
    33  C    7.735191   9.079823   8.928174   9.517282   7.592804
    34  H    6.152986   7.626898   7.357487   8.235420   6.329076
    35  C    8.377128   9.550087   9.486944   9.842750   8.004872
    36  H    8.527593   9.330851   9.406540   9.376473   7.817493
    37  H    8.407860   9.868809   9.669051  10.380660   8.389860
    38  C    9.844538  11.040588  10.990404  11.314799   9.450917
    39  H   10.430396  11.615171  11.419056  11.846004   9.768826
    40  H   10.334348  11.387821  11.378524  11.548930   9.753749
    41  H   10.078445  11.431796  11.497063  11.848095  10.136184
                   21         22         23         24         25
    21  H    0.000000
    22  H    1.762732   0.000000
    23  H    4.284047   4.054150   0.000000
    24  H    4.183594   3.322909   1.768087   0.000000
    25  H    3.099124   2.520009   1.755151   1.771384   0.000000
    26  C    3.338286   4.884010   5.415060   5.903173   5.276218
    27  H    3.837951   5.303840   6.253482   6.526000   6.045492
    28  C    4.251927   5.923985   6.100013   6.899222   6.060387
    29  C    4.487890   6.116882   5.831134   6.907638   5.850149
    30  C    5.438310   7.131916   7.459298   8.213994   7.444349
    31  C    5.769533   7.409472   6.978839   8.182355   7.063147
    32  H    3.959126   5.454236   4.911636   6.071311   4.919066
    33  C    6.537887   8.266763   8.379526   9.305127   8.425970
    34  H    5.688566   7.318535   7.920140   8.488375   7.868932
    35  C    6.705465   8.414765   8.192069   9.316371   8.283724
    36  H    6.226846   7.776346   7.071286   8.410583   7.191302
    37  H    7.459044   9.189445   9.405354  10.286510   9.457093
    38  C    8.115143   9.817920   9.459884  10.682926   9.597653
    39  H    8.525775  10.262495  10.265420  11.400876  10.267002
    40  H    8.296762   9.946180   9.411863  10.733767   9.554026
    41  H    8.830480  10.516197   9.880946  11.144921  10.182607
                   26         27         28         29         30
    26  C    0.000000
    27  H    1.089240   0.000000
    28  C    1.464551   2.121586   0.000000
    29  C    2.558819   3.437382   1.403380   0.000000
    30  C    2.442258   2.511131   1.410137   2.403890   0.000000
    31  C    3.809267   4.539637   2.425274   1.389947   2.758278
    32  H    2.808544   3.841473   2.148188   1.078580   3.385858
    33  C    3.737649   3.894441   2.440223   2.782724   1.385091
    34  H    2.613330   2.213318   2.156899   3.388575   1.083758
    35  C    4.302290   4.755531   2.841897   2.436709   2.421674
    36  H    4.688035   5.508289   3.398295   2.134758   3.842258
    37  H    4.580190   4.534732   3.415147   3.866927   2.138057
    38  C    5.809810   6.228385   4.350033   3.821732   3.805354
    39  H    6.284510   6.572815   4.860573   4.493996   4.132888
    40  H    6.313430   6.867937   4.856590   4.033003   4.579404
    41  H    6.268924   6.641527   4.846101   4.427247   4.186307
                   31         32         33         34         35
    31  C    0.000000
    32  H    2.145302   0.000000
    33  C    2.392247   3.861165   0.000000
    34  H    3.841945   4.286587   2.135150   0.000000
    35  C    1.396484   3.408546   1.399400   3.396580   0.000000
    36  H    1.084035   2.453840   3.377995   4.925928   2.146022
    37  H    3.380552   4.945394   1.084282   2.447482   2.153428
    38  C    2.534982   4.679505   2.529149   4.663546   1.508199
    39  H    3.296601   5.394877   2.808217   4.857068   2.160539
    40  H    2.645192   4.701034   3.432425   5.528601   2.159786
    41  H    3.217463   5.294454   2.891666   4.945257   2.158512
                   36         37         38         39         40
    36  H    0.000000
    37  H    4.282209   0.000000
    38  C    2.735844   2.732511   0.000000
    39  H    3.557579   2.711839   1.092929   0.000000
    40  H    2.392634   3.785205   1.090270   1.765869   0.000000
    41  H    3.432192   2.874290   1.093820   1.759111   1.763749
                   41
    41  H    0.000000
 Framework group  C1[X(C18H22O)]
 Deg. of freedom   117
                         Standard orientation:                         
 ---------------------------------------------------------------------
 Center     Atomic      Atomic             Coordinates (Angstroms)
 Number     Number       Type             X           Y           Z
 ---------------------------------------------------------------------
      1          8           0       -0.434567    1.916527    0.206080
      2          6           0       -2.927490   -0.385764   -0.652015
      3          6           0       -2.603636    0.795804    0.333793
      4          6           0       -1.885148   -1.342230    0.010904
      5          6           0       -2.772387    0.112870    1.735234
      6          6           0       -2.341016   -1.363070    1.497537
      7          6           0       -0.605461   -0.521537   -0.014004
      8          6           0       -1.078673    0.889913    0.150862
      9          6           0       -4.376119   -0.891419   -0.583971
     10          6           0       -2.603385   -0.067479   -2.121110
     11          6           0       -3.332222    2.116099    0.173036
     12          1           0       -1.792523   -2.329638   -0.443355
     13          1           0       -3.811973    0.184500    2.058658
     14          1           0       -2.170351    0.612910    2.495544
     15          1           0       -1.530827   -1.673804    2.155858
     16          1           0       -3.169396   -2.056931    1.649319
     17          1           0       -4.725910   -1.092535    0.427666
     18          1           0       -4.474571   -1.817434   -1.157435
     19          1           0       -5.056876   -0.161941   -1.028206
     20          1           0       -2.712804   -0.965419   -2.734822
     21          1           0       -1.588755    0.305836   -2.264749
     22          1           0       -3.292294    0.682810   -2.515880
     23          1           0       -2.967102    2.847055    0.896805
     24          1           0       -4.406181    1.991666    0.328039
     25          1           0       -3.174022    2.542369   -0.819267
     26          6           0        0.616212   -1.070222   -0.169817
     27          1           0        0.597022   -2.152849   -0.288107
     28          6           0        1.987876   -0.558200   -0.134013
     29          6           0        2.374197    0.788551   -0.214591
     30          6           0        3.011367   -1.520408   -0.011103
     31          6           0        3.717337    1.141886   -0.159063
     32          1           0        1.616246    1.550920   -0.301992
     33          6           0        4.346064   -1.156256    0.055634
     34          1           0        2.746255   -2.570157    0.036585
     35          6           0        4.727476    0.188230   -0.016493
     36          1           0        3.983932    2.190643   -0.223607
     37          1           0        5.104030   -1.924857    0.157641
     38          6           0        6.180401    0.584936    0.062883
     39          1           0        6.781953    0.038958   -0.668235
     40          1           0        6.312753    1.651269   -0.121796
     41          1           0        6.595576    0.364178    1.050475
 ---------------------------------------------------------------------
 Rotational constants (GHZ):           0.9837290           0.1859710           0.1752364
   572 basis functions,   882 primitive gaussians,   591 cartesian basis functions
    69 alpha electrons       69 beta electrons
       nuclear repulsion energy      1418.0129052733 Hartrees.
 NAtoms=   41 NActive=   41 NUniq=   41 SFac= 1.00D+00 NAtFMM=   60 NAOKFM=F Big=F
 Initial guess from the checkpoint file:  "jneutral-opt.chk"
 B after Tr=     0.000000    0.000000   -0.000000
         Rot=    0.999838   -0.017335    0.004936   -0.000290 Ang=  -2.07 deg.
 ExpMin= 3.60D-02 ExpMax= 8.59D+03 ExpMxC= 1.30D+03 IAcc=3 IRadAn=         5 AccDes= 0.00D+00
 Harris functional with IExCor=  402 and IRadAn=       5 diagonalized for initial guess.
 HarFok:  IExCor=  402 AccDes= 0.00D+00 IRadAn=         5 IDoV= 1 UseB2=F ITyADJ=14
 ICtDFT=  3500011 ScaDFX=  1.000000  1.000000  1.000000  1.000000
 FoFCou: FMM=F IPFlag=           0 FMFlag=      100000 FMFlg1=           0
         NFxFlg=           0 DoJE=T BraDBF=F KetDBF=T FulRan=T
         wScrn=  0.000000 ICntrl=       500 IOpCl=  0 I1Cent=   200000004 NGrid=           0
         NMat0=    1 NMatS0=      1 NMatT0=    0 NMatD0=    1 NMtDS0=    0 NMtDT0=    0
 Petite list used in FoFCou.
