----- GAMESS execution script 'rungms' -----
This job is running on host gpuv100001.cofc.edu
under operating system Linux at Fri Apr 19 08:10:17 EDT 2019
Available scratch disk space (Kbyte units) at beginning of the job is
Filesystem     1K-blocks    Used Available Use% Mounted on
/dev/sda4      369062960 4771176 345521404   2% /
GAMESS temporary binary files will be written to /scratch/bt-local
GAMESS supplementary output files will be written to /scratch/bt-local
Copying input file test.inp to your run's scratch directory...
 
Assuming a single but multicore node.
 

 Distributed Data Interface kickoff program.
 Initiating 24 compute processes on 1 nodes to run the following command:
 /opt/ohpc/pub/apps/chem/gamess/2018/gamess.00.x test 

          ******************************************************
          *         GAMESS VERSION = 02 AUG 2018 (R2)         *
          *             FROM IOWA STATE UNIVERSITY             *
          * M.W.SCHMIDT, K.K.BALDRIDGE, J.A.BOATZ, S.T.ELBERT, *
          *   M.S.GORDON, J.H.JENSEN, S.KOSEKI, N.MATSUNAGA,   *
          *          K.A.NGUYEN, S.J.SU, T.L.WINDUS,           *
          *       TOGETHER WITH M.DUPUIS, J.A.MONTGOMERY       *
          *         J.COMPUT.CHEM.  14, 1347-1363(1993)        *
          **************** 64 BIT INTEL VERSION ****************

  SINCE 1993, STUDENTS AND POSTDOCS WORKING AT IOWA STATE UNIVERSITY
  AND ALSO IN THEIR VARIOUS JOBS AFTER LEAVING ISU HAVE MADE IMPORTANT
  CONTRIBUTIONS TO THE CODE:
     IVANA ADAMOVIC, CHRISTINE AIKENS, YURI ALEXEEV, POOJA ARORA,
     ANDREY ASADCHEV, ROB BELL, PRADIPTA BANDYOPADHYAY, JONATHAN BENTZ,
     BRETT BODE, KURT BRORSEN, CALEB CARLIN, GALINA CHABAN, WEI CHEN,
     CHEOL HO CHOI, PAUL DAY, ALBERT DEFUSCO, NUWAN DESILVA, TIM DUDLEY,
     DMITRI FEDOROV, ALEX FINDLATER, GRAHAM FLETCHER, MARK FREITAG,
     KURT GLAESEMANN, ANASTASIA GUININA,
     DAN KEMP, GRANT MERRILL, NORIYUKI MINEZAWA, JONATHAN MULLIN,
     TAKESHI NAGATA, SEAN NEDD, HEATHER NETZLOFF, BOSILJKA NJEGIC, RYAN OLSON,
     MIKE PAK, BUU PHAM,
     SPENCER PRUITT, LUKE ROSKOP, JIM SHOEMAKER, LYUDMILA SLIPCHENKO,
     TONY SMITH, SAROM SOK LEANG, JIE SONG, TETSUYA TAKETSUGU, SIMON WEBB,
     PENG XU, SOOHAENG YOO, FEDERICO ZAHARIEV

  ADDITIONAL CODE HAS BEEN PROVIDED BY COLLABORATORS IN OTHER GROUPS:
     IOWA STATE UNIVERSITY:
          JOE IVANIC, AARON WEST, LAIMUTIS BYTAUTAS, KLAUS RUEDENBERG
     UNIVERSITY OF TOKYO: KIMIHIKO HIRAO, TAKAHITO NAKAJIMA,
          TAKAO TSUNEDA, MUNEAKI KAMIYA, SUSUMU YANAGISAWA,
          KIYOSHI YAGI, MAHITO CHIBA, SEIKEN TOKURA, NAOAKI KAWAKAMI
     UNIVERSITY OF AARHUS: FRANK JENSEN
     UNIVERSITY OF IOWA: VISVALDAS KAIRYS, HUI LI
     NATIONAL INST. OF STANDARDS AND TECHNOLOGY: WALT STEVENS, DAVID GARMER
     UNIVERSITY OF PISA: BENEDETTA MENNUCCI, JACOPO TOMASI
     UNIVERSITY OF MEMPHIS: HENRY KURTZ, PRAKASHAN KORAMBATH
     UNIVERSITY OF ALBERTA: TOBY ZENG, MARIUSZ KLOBUKOWSKI
     UNIVERSITY OF NEW ENGLAND: MARK SPACKMAN
     MIE UNIVERSITY: HIROAKI UMEDA
     NAT. INST. OF ADVANCED INDUSTRIAL SCIENCE AND TECHNOLOGY: KAZUO KITAURA
     MICHIGAN STATE UNIVERSITY:
          KAROL KOWALSKI, MARTA WLOCH, JEFFREY GOUR, JESSE LUTZ,
          WEI LI, JUN SHEN, J. EMILIANO DEUSTUA, PIOTR PIECUCH
     UNIVERSITY OF MINNESOTA:
          YINAN SHU
     UNIVERSITY OF SILESIA: MONIKA MUSIAL, STANISLAW KUCHARSKI
     FACULTES UNIVERSITAIRES NOTRE-DAME DE LA PAIX:
          OLIVIER QUINET, BENOIT CHAMPAGNE
     UNIVERSITY OF CALIFORNIA - SANTA BARBARA: BERNARD KIRTMAN
     INSTITUTE FOR MOLECULAR SCIENCE:
          KAZUYA ISHIMURA, MICHIO KATOUDA, AND SHIGERU NAGASE
     UNIVERSITY OF NOTRE DAME: ANNA POMOGAEVA, DAN CHIPMAN
     KYUSHU UNIVERSITY:
          HARUYUKI NAKANO,
          FENG LONG GU, JACEK KORCHOWIEC, MARCIN MAKOWSKI, AND YURIKO AOKI,
          HIROTOSHI MORI AND EISAKU MIYOSHI
     PENNSYLVANIA STATE UNIVERSITY:
          TZVETELIN IORDANOV, CHET SWALINA, JONATHAN SKONE,
          SHARON HAMMES-SCHIFFER
     WASEDA UNIVERSITY:
          MASATO KOBAYASHI, TOMOKO AKAMA, TSUGUKI TOUMA,
          TAKESHI YOSHIKAWA, YASUHIRO IKABATA, JUNJI SEINO,
          YUYA NAKAJIMA, HIROMI NAKAI
     NANJING UNIVERSITY: SHUHUA LI
     UNIVERSITY OF NEBRASKA:
          PEIFENG SU, DEJUN SI, NANDUN THELLAMUREGE, YALI WANG, HUI LI
     UNIVERSITY OF ZURICH: ROBERTO PEVERATI, KIM BALDRIDGE
     N. COPERNICUS UNIVERSITY AND JACKSON STATE UNIVERSITY:
          MARIA BARYSZ
     UNIVERSITY OF COPENHAGEN: Jimmy Kromann, CASPER STEINMANN
     TOKYO INSTITUTE OF TECHNOLOGY: HIROYA NAKATA
     NAGOYA UNIVERSITY: YOSHIO NISHIMOTO, STEPHAN IRLE
     MOSCOW STATE UNIVERSITY: VLADIMIR MIRONOV


 PARALLEL VERSION RUNNING ON       24 PROCESSORS IN        1 NODES.

 EXECUTION OF GAMESS BEGUN Fri Apr 19 08:10:18 2019

            ECHO OF THE FIRST FEW INPUT CARDS -
 INPUT CARD>!   E(MP2)= -698.9213146493   the harmonic modes are                            
 INPUT CARD>!   FREQ=237.62, 311.44, 355.22, 425.01, 477.94, 527.22, 529.86, 810.38,        
 INPUT CARD>!   FREQ=874.12, 1172.88, 1189.11, 1227.07, 1490.56, 3817.79, 3822.07           
 INPUT CARD>!   See B.Njegic, M.S.Gordon  J.Chem.Phys. 125, 224102(2006), Table VII.        
 INPUT CARD>!                                                                               
 INPUT CARD>!   this test takes 491 seconds on 2.66 GHz Cloverton ( 1 Apr 2015)             
 INPUT CARD>!   results have been almost unchanged since 2008                               
 INPUT CARD>!                                                                               
 INPUT CARD> $CONTRL SCFTYP=RHF mplevl=2 RUNTYP=hessian $END                                
 INPUT CARD> $system mwords=25 memddi=0 $end                                                
 INPUT CARD> $GUESS  GUESS=huckel $END                                                      
 INPUT CARD> $statpt opttol=1.0d-5 $end                                                     
 INPUT CARD> $force  nvib=2 $end                                                            
 INPUT CARD> $basis  gbasis=n31 ngauss=6 ndfunc=1 npfunc=1 $end                             
 INPUT CARD> $mp2    code=ims $end                                                          
 INPUT CARD> $DATA                                                                          
 INPUT CARD>sulfuric acid                                                                   
 INPUT CARD>Cn 2                                                                            
 INPUT CARD>                                                                                
 INPUT CARD>S          16.0   0.0000000000   0.0000000000  -0.1685629831                    
 INPUT CARD>O           8.0   0.8581804909   0.9168966239   0.8563117705                    
 INPUT CARD>O           8.0   0.9670161942  -0.8412410460  -0.8350560171                    
 INPUT CARD>H           1.0   0.3023433940   1.6717530402   1.1127562441                    
 INPUT CARD> $end                                                                           
 INPUT CARD>                                                                                
 INPUT CARD>! TRAVIS-CI MEDIUM                                                              
 INPUT CARD>                                                                                
   25000000 WORDS OF MEMORY AVAILABLE

     BASIS OPTIONS
     -------------
     GBASIS=N31          IGAUSS=       6      POLAR=POPN31  
     NDFUNC=       1     NFFUNC=       0     DIFFSP=       F
     NPFUNC=       1      DIFFS=       F     BASNAM=        


     RUN TITLE
     ---------
 sulfuric acid                                                                   

 THE POINT GROUP OF THE MOLECULE IS CN      
 THE ORDER OF THE PRINCIPAL AXIS IS     2

 ATOM      ATOMIC                      COORDINATES (BOHR)
           CHARGE         X                   Y                   Z
 S          16.0     0.0000000000        0.0000000000       -0.3185378497
 O           8.0    -1.6217259758       -1.7326833782        1.6181946063
 O           8.0     1.6217259758        1.7326833782        1.6181946063
 O           8.0    -1.8273956327        1.5897150666       -1.5780270567
 O           8.0     1.8273956327       -1.5897150666       -1.5780270567
 H           1.0    -0.5713461689       -3.1591551651        2.1028043925
 H           1.0     0.5713461689        3.1591551651        2.1028043925

          INTERNUCLEAR DISTANCES (ANGS.)
          ------------------------------

                1 S          2 O          3 O          4 O          5 O     

   1 S       0.0000000    1.6209693 *  1.6209693 *  1.4446521 *  1.4446521 *
   2 O       1.6209693 *  0.0000000    2.5117111 *  2.4420521 *  2.4895364 *
   3 O       1.6209693 *  2.5117111 *  0.0000000    2.4895364 *  2.4420521 *
   4 O       1.4446521 *  2.4420521 *  2.4895364 *  0.0000000    2.5634405 *
   5 O       1.4446521 *  2.4895364 *  2.4420521 *  2.5634405 *  0.0000000  
   6 H       2.1278977 *  0.9718677 *  2.8484534 *  3.2482152    2.4688047 *
   7 H       2.1278977 *  2.8484534 *  0.9718677 *  2.4688047 *  3.2482152  

                6 H          7 H     

   1 S       2.1278977 *  2.1278977 *
   2 O       0.9718677 *  2.8484534 *
   3 O       2.8484534 *  0.9718677 *
   4 O       3.2482152    2.4688047 *
   5 O       2.4688047 *  3.2482152  
   6 H       0.0000000    3.3977462  
   7 H       3.3977462    0.0000000  

  * ... LESS THAN  3.000


     ATOMIC BASIS SET
     ----------------
 THE CONTRACTED PRIMITIVE FUNCTIONS HAVE BEEN UNNORMALIZED
 THE CONTRACTED BASIS FUNCTIONS ARE NOW NORMALIZED TO UNITY

  SHELL TYPE  PRIMITIVE        EXPONENT          CONTRACTION COEFFICIENT(S)

 S         

      1   S       1         21917.1000000    0.001869240849
      1   S       2          3301.4900000    0.014230306464
      1   S       3           754.1460000    0.069696231659
      1   S       4           212.7110000    0.238487108332
      1   S       5            67.9896000    0.483307219541
      1   S       6            23.0515000    0.338074153569

      2   L       7           423.7350000   -0.002376770499    0.004061009982
      2   L       8           100.7100000   -0.031693006651    0.030681299864
      2   L       9            32.1599000   -0.113317023779    0.130451999421
      2   L      10            11.8079000    0.056090011770    0.327204998547
      2   L      11             4.6311000    0.592255124284    0.452850997989
      2   L      12             1.8702500    0.455006095483    0.256041998863

      3   L      13             2.6158400   -0.250373114159   -0.014510489547
      3   L      14             0.9221670    0.066956763101    0.310262776489
      3   L      15             0.3412870    1.054506269068    0.754482456476

      4   L      16             0.1171670    1.000000000000    1.000000000000

      5   D      17             0.6500000    1.000000000000

 O         

     10   S      18          5484.6716600    0.001831074430
     10   S      19           825.2349460    0.013950172200
     10   S      20           188.0469580    0.068445078098
     10   S      21            52.9645000    0.232714335992
     10   S      22            16.8975704    0.470192897984
     10   S      23             5.7996353    0.358520852987

     11   L      24            15.5396162   -0.110777549525    0.070874268231
     11   L      25             3.5999336   -0.148026262701    0.339752839147
     11   L      26             1.0137618    1.130767015354    0.727158577316

     12   L      27             0.2700058    1.000000000000    1.000000000000

     13   D      28             0.8000000    1.000000000000

 O         

     18   S      29          5484.6716600    0.001831074430
     18   S      30           825.2349460    0.013950172200
     18   S      31           188.0469580    0.068445078098
     18   S      32            52.9645000    0.232714335992
     18   S      33            16.8975704    0.470192897984
     18   S      34             5.7996353    0.358520852987

     19   L      35            15.5396162   -0.110777549525    0.070874268231
     19   L      36             3.5999336   -0.148026262701    0.339752839147
     19   L      37             1.0137618    1.130767015354    0.727158577316

     20   L      38             0.2700058    1.000000000000    1.000000000000

     21   D      39             0.8000000    1.000000000000

 H         

     25   S      40            18.7311370    0.033494604338
     25   S      41             2.8253944    0.234726953484
     25   S      42             0.6401217    0.813757326146

     26   S      43             0.1612778    1.000000000000

     27   P      44             1.1000000    1.000000000000

 TOTAL NUMBER OF BASIS SET SHELLS             =   27
 NUMBER OF CARTESIAN GAUSSIAN BASIS FUNCTIONS =   89
 NUMBER OF ELECTRONS                          =   50
 CHARGE OF MOLECULE                           =    0
 SPIN MULTIPLICITY                            =    1
 NUMBER OF OCCUPIED ORBITALS (ALPHA)          =   25
 NUMBER OF OCCUPIED ORBITALS (BETA )          =   25
 TOTAL NUMBER OF ATOMS                        =    7
 THE NUCLEAR REPULSION ENERGY IS      284.8202406576

     $CONTRL OPTIONS
     ---------------
 SCFTYP=RHF          RUNTYP=HESSIAN      EXETYP=RUN     
 MPLEVL=       2     CITYP =NONE         CCTYP =NONE         VBTYP =NONE    
 DFTTYP=NONE         TDDFT =NONE    
 MULT  =       1     ICHARG=       0     NZVAR =       0     COORD =UNIQUE  
 PP    =NONE         RELWFN=NONE         LOCAL =NONE         NUMGRD=       F
 ISPHER=      -1     NOSYM =       0     MAXIT =      30     UNITS =ANGS    
 PLTORB=       F     MOLPLT=       F     AIMPAC=       F     FRIEND=        
 NPRINT=       7     IREST =       0     GEOM  =INPUT   
 NORMF =       0     NORMP =       0     ITOL  =      20     ICUT  =       9
 INTTYP=BEST         GRDTYP=BEST         QMTTOL= 1.0E-06

     $SYSTEM OPTIONS
     ---------------
  REPLICATED MEMORY=    25000000 WORDS (ON EVERY NODE).
 DISTRIBUTED MEMDDI=           0 MILLION WORDS IN AGGREGATE,
 MEMDDI DISTRIBUTED OVER  24 PROCESSORS IS           0 WORDS/PROCESSOR.
 TOTAL MEMORY REQUESTED ON EACH PROCESSOR=    25000000 WORDS.
 TIMLIM=      525600.00 MINUTES, OR     365.0 DAYS.
 PARALL= T  BALTYP=  DLB     KDIAG=    0  COREFL= F
 MXSEQ2=     300 MXSEQ3=     150  mem10=         0

          ----------------
          PROPERTIES INPUT
          ----------------

     MOMENTS            FIELD           POTENTIAL          DENSITY
 IEMOM =       1   IEFLD =       0   IEPOT =       0   IEDEN =       0
 WHERE =COMASS     WHERE =NUCLEI     WHERE =NUCLEI     WHERE =NUCLEI  
 OUTPUT=BOTH       OUTPUT=BOTH       OUTPUT=BOTH       OUTPUT=BOTH    
 IEMINT=       0   IEFINT=       0                     IEDINT=       0
                                                       MORB  =       0
          EXTRAPOLATION IN EFFECT
          SOSCF IN EFFECT
 ORBITAL PRINTING OPTION: NPREO=     1    89     2     1

     -------------------------------
     INTEGRAL TRANSFORMATION OPTIONS
     -------------------------------
     NWORD  =            0
     CUTOFF = 1.0E-09     MPTRAN =       0
     DIRTRF =       F     AOINTS =DUP     

          ----------------------
          INTEGRAL INPUT OPTIONS
          ----------------------
 NOPK  =       1 NORDER=       0 SCHWRZ=       T

          -----------------------
          MP2 CONTROL INFORMATION
          -----------------------
          NACORE =        9  NBCORE =        9
          LMOMP2 =        F  AOINTS = DUP     
          METHOD =        2  NWORD  =               0
          MP2PRP =        F  OSPT   = NONE    
          CUTOFF = 1.00E-09  CPHFBS = BASISAO 
          CODE   = IMS     

          NUMBER OF CORE -A-  ORBITALS =     9
          NUMBER OF CORE -B-  ORBITALS =     9
          NUMBER OF OCC. -A-  ORBITALS =    25
          NUMBER OF OCC. -B-  ORBITALS =    25
          NUMBER OF MOLECULAR ORBITALS =    89
          NUMBER OF   BASIS  FUNCTIONS =    89


     ------------------------------------------
     THE POINT GROUP IS CN , NAXIS= 2, ORDER= 2
     ------------------------------------------

     DIMENSIONS OF THE SYMMETRY SUBSPACES ARE
 A   =   46     B   =   43

 ..... DONE SETTING UP THE RUN .....
 CPU     0: STEP CPU TIME=     0.02 TOTAL CPU TIME=          0.0 (      0.0 MIN)
 TOTAL WALL CLOCK TIME=          0.1 SECONDS, CPU UTILIZATION IS    20.00%

     ---------------------------------
     HESSIAN MATRIX CONTROL PARAMETERS
     ---------------------------------
     METHOD=SEMINUM    NVIB  =       2   VIBSIZ= 0.01000
     RDHESS=       F   PURIFY=       F   PRTIFC=       F
     VIBANL=       T   DECOMP=       F   PROJCT=       F
     SCLFAC= 1.00000   PRTSCN=       F   NPRT  =       0
     PULCOR=       F   NPUN  =       0   REDOVB=       T
     HSSTYP=GENERAL 
     THERMOCHEMISTRY WILL BE PRINTED FOR    1 TEMPERATURES:
      298.15000
1   ATOM  0
                                        -------------------
   COORD  0                             NUCLEAR COORDINATES
                                        -------------------
     VIB  0

                       ATOM             X              Y              Z

                 1  S                0.000000       0.000000      -0.318538
                 2  O               -1.621726      -1.732683       1.618195
                 3  O                1.621726       1.732683       1.618195
                 4  O               -1.827396       1.589715      -1.578027
                 5  O                1.827396      -1.589715      -1.578027
                 6  H               -0.571346      -3.159155       2.102804
                 7  H                0.571346       3.159155       2.102804

          ********************
          1 ELECTRON INTEGRALS
          ********************
 ...... END OF ONE-ELECTRON INTEGRALS ......
 CPU     0: STEP CPU TIME=     0.00 TOTAL CPU TIME=          0.0 (      0.0 MIN)
 TOTAL WALL CLOCK TIME=          0.1 SECONDS, CPU UTILIZATION IS    18.18%

          -------------
          GUESS OPTIONS
          -------------
          GUESS =HUCKEL            NORB  =       0          NORDER=       0
          MIX   =       F          PRTMO =       F          PUNMO =       F
          TOLZ  = 1.0E-08          TOLE  = 1.0E-05
          SYMDEN=       F          PURIFY=       F

 INITIAL GUESS ORBITALS GENERATED BY HUCKEL   ROUTINE.
 HUCKEL GUESS REQUIRES     67138 WORDS.

 SYMMETRIES FOR INITIAL GUESS ORBITALS FOLLOW.   BOTH SET(S).
    25 ORBITALS ARE OCCUPIED (    9 CORE ORBITALS).
    10=A       11=B       12=A       13=B       14=A       15=B       16=A   
    17=B       18=A       19=A       20=B       21=A       22=B       23=B   
    24=A       25=B       26=B       27=A       28=B       29=A       30=A   
    31=A       32=A       33=A       34=A       35=A   
 ...... END OF INITIAL ORBITAL SELECTION ......
 CPU     0: STEP CPU TIME=     0.02 TOTAL CPU TIME=          0.0 (      0.0 MIN)
 TOTAL WALL CLOCK TIME=          0.1 SECONDS, CPU UTILIZATION IS    28.57%

                    ----------------------
                    AO INTEGRAL TECHNOLOGY
                    ----------------------
     S,P,L SHELL ROTATED AXIS INTEGRALS, REPROGRAMMED BY
        KAZUYA ISHIMURA (IMS) AND JOSE SIERRA (SYNSTAR).
     S,P,D,L SHELL ROTATED AXIS INTEGRALS PROGRAMMED BY
        KAZUYA ISHIMURA (INSTITUTE FOR MOLECULAR SCIENCE).
     S,P,D,F,G SHELL TO TOTAL QUARTET ANGULAR MOMENTUM SUM 5,
        ERIC PROGRAM BY GRAHAM FLETCHER (ELORET AND NASA ADVANCED
        SUPERCOMPUTING DIVISION, AMES RESEARCH CENTER).
     S,P,D,F,G,L SHELL GENERAL RYS QUADRATURE PROGRAMMED BY
        MICHEL DUPUIS (PACIFIC NORTHWEST NATIONAL LABORATORY).

          --------------------
          2 ELECTRON INTEGRALS
          --------------------

 THE -PK- OPTION IS OFF, THE INTEGRALS ARE NOT IN SUPERMATRIX FORM.
 STORING   15000 INTEGRALS/RECORD ON DISK, USING 12 BYTES/INTEGRAL.
 TWO ELECTRON INTEGRAL EVALUATION REQUIRES   90774 WORDS OF MEMORY.
 SCHWARZ INEQUALITY OVERHEAD:      3997 INTEGRALS, T=        0.00
 II,JST,KST,LST =  1  1  1  1 NREC =         1 INTLOC =    1
 II,JST,KST,LST =  2  1  1  1 NREC =         1 INTLOC =    1
 II,JST,KST,LST =  3  1  1  1 NREC =         1 INTLOC =    1
 II,JST,KST,LST =  4  1  1  1 NREC =         1 INTLOC =    1
 II,JST,KST,LST =  5  1  1  1 NREC =         1 INTLOC =    1
 II,JST,KST,LST =  6  1  1  1 NREC =         1 INTLOC =    1
 II,JST,KST,LST =  7  1  1  1 NREC =         1 INTLOC =    1
 II,JST,KST,LST =  8  1  1  1 NREC =         1 INTLOC =    1
 II,JST,KST,LST =  9  1  1  1 NREC =         1 INTLOC =    1
 II,JST,KST,LST = 10  1  1  1 NREC =         1 INTLOC =    1
 II,JST,KST,LST = 11  1  1  1 NREC =         1 INTLOC =    1
 II,JST,KST,LST = 12  1  1  1 NREC =         1 INTLOC = 1321
 II,JST,KST,LST = 13  1  1  1 NREC =         1 INTLOC = 1321
 II,JST,KST,LST = 14  1  1  1 NREC =         1 INTLOC = 8993
 II,JST,KST,LST = 15  1  1  1 NREC =         1 INTLOC = 8993
 II,JST,KST,LST = 16  1  1  1 NREC =         1 INTLOC = 8993
 II,JST,KST,LST = 17  1  1  1 NREC =         1 INTLOC = 8993
 II,JST,KST,LST = 18  1  1  1 NREC =         1 INTLOC = 8993
 II,JST,KST,LST = 19  1  1  1 NREC =         1 INTLOC = 8993
 II,JST,KST,LST = 20  1  1  1 NREC =         3 INTLOC = 6267
 II,JST,KST,LST = 21  1  1  1 NREC =         5 INTLOC = 7743
 II,JST,KST,LST = 22  1  1  1 NREC =        11 INTLOC = 7396
 II,JST,KST,LST = 23  1  1  1 NREC =        11 INTLOC = 7396
 II,JST,KST,LST = 24  1  1  1 NREC =        11 INTLOC = 7396
 II,JST,KST,LST = 25  1  1  1 NREC =        11 INTLOC = 7396
 II,JST,KST,LST = 26  1  1  1 NREC =        11 INTLOC = 7396
 II,JST,KST,LST = 27  1  1  1 NREC =        11 INTLOC = 7396
 SCHWARZ INEQUALITY TEST SKIPPED        5564 INTEGRAL BLOCKS.
 TOTAL NUMBER OF NONZERO TWO-ELECTRON INTEGRALS =             3585119
        253 INTEGRAL RECORDS WERE STORED ON DISK FILE  8.
  ...... END OF TWO-ELECTRON INTEGRALS .....
 CPU     0: STEP CPU TIME=     0.02 TOTAL CPU TIME=          0.1 (      0.0 MIN)
 TOTAL WALL CLOCK TIME=          0.2 SECONDS, CPU UTILIZATION IS    35.29%

          --------------------------
                 RHF SCF CALCULATION
          --------------------------

     NUCLEAR ENERGY =       284.8202406576
     MAXIT =   30     NPUNCH=    2
     EXTRAP=T  DAMP=F  SHIFT=F  RSTRCT=F  DIIS=F  DEM=F  SOSCF=T
     DENSITY MATRIX CONV=  1.00E-06
     SOSCF WILL OPTIMIZE    1600 ORBITAL ROTATIONS, SOGTOL=   0.250
     MEMORY REQUIRED FOR RHF ITERS=     93093 WORDS.

 ITER EX DEM     TOTAL ENERGY        E CHANGE  DENSITY CHANGE     ORB. GRAD
   1  0  0     -696.0662147291  -696.0662147291   1.175119578   0.000000000
          ---------------START SECOND ORDER SCF---------------
   2  1  0     -697.5219321410    -1.4557174119   0.970998547   0.206612037
   3  2  0     -697.5458764604    -0.0239443195   0.376947036   0.151164330
   4  3  0     -698.0260246946    -0.4801482342   0.150419550   0.035766314
   5  4  0     -698.0416127410    -0.0155880464   0.059073586   0.014175884
   6  5  0     -698.0444304572    -0.0028177162   0.003400502   0.001613280
   7  6  0     -698.0444889383    -0.0000584811   0.001213717   0.000654066
   8  7  0     -698.0444972563    -0.0000083180   0.000565033   0.000222867
   9  8  0     -698.0444982051    -0.0000009487   0.000081484   0.000058871
  10  9  0     -698.0444982653    -0.0000000602   0.000017086   0.000017375
  11 10  0     -698.0444982704    -0.0000000051   0.000008450   0.000002543
  12 11  0     -698.0444982708    -0.0000000004   0.000001342   0.000000674
  13 12  0     -698.0444982708    -0.0000000000   0.000000592   0.000000241

          -----------------
          DENSITY CONVERGED
          -----------------
     TIME TO FORM FOCK OPERATORS=       0.0 SECONDS (       0.0 SEC/ITER)
     TIME TO SOLVE SCF EQUATIONS=       0.0 SECONDS (       0.0 SEC/ITER)

 FINAL RHF ENERGY IS     -698.0444982708 AFTER  13 ITERATIONS

          ------------
          EIGENVECTORS
          ------------

                      1          2          3          4          5
                  -92.3028   -20.6712   -20.6711   -20.6052   -20.6052
                     A          B          A          B          A   
    1  S  1  S    0.996275   0.000000   0.000012   0.000000   0.000027
    2  S  1  S    0.014201   0.000000  -0.000066   0.000000  -0.000109
    3  S  1  X    0.000000   0.000058   0.000000   0.000008   0.000000
    4  S  1  Y    0.000000   0.000065   0.000000  -0.000008   0.000000
    5  S  1  Z    0.000038   0.000000  -0.000076   0.000000  -0.000000
    6  S  1  S   -0.019889   0.000000   0.000113   0.000000   0.001067
    7  S  1  X    0.000000  -0.000299   0.000000  -0.000300   0.000000
    8  S  1  Y    0.000000  -0.000353   0.000000   0.000274   0.000000
    9  S  1  Z   -0.000034   0.000000   0.000403   0.000000  -0.000189
   10  S  1  S    0.001403   0.000000  -0.000057   0.000000  -0.000206
   11  S  1  X    0.000000   0.000723   0.000000   0.000434   0.000000
   12  S  1  Y    0.000000  -0.000461   0.000000  -0.000366   0.000000
   13  S  1  Z   -0.000003   0.000000  -0.000008   0.000000   0.000269
   14  S  1 XX    0.006916   0.000000   0.000068   0.000000  -0.000271
   15  S  1 YY    0.006891   0.000000   0.000116   0.000000  -0.000269
   16  S  1 ZZ    0.006904   0.000000   0.000160   0.000000  -0.000236
   17  S  1 XY   -0.000004   0.000000   0.000183   0.000000   0.000072
   18  S  1 XZ    0.000000  -0.000191   0.000000  -0.000041   0.000000
   19  S  1 YZ    0.000000  -0.000202   0.000000   0.000037   0.000000
   20  O  2  S   -0.000011   0.703331   0.703342  -0.000030   0.000238
   21  O  2  S   -0.000041   0.014938   0.014982  -0.000020   0.000021
   22  O  2  X   -0.000013   0.000931   0.000900   0.000013  -0.000012
   23  O  2  Y    0.000004  -0.000200  -0.000201  -0.000012  -0.000004
   24  O  2  Z    0.000005  -0.000255  -0.000257  -0.000002   0.000025
   25  O  2  S    0.000579   0.002940   0.002757   0.000086  -0.000032
   26  O  2  X    0.000236  -0.000422  -0.000329  -0.000043  -0.000019
   27  O  2  Y    0.000051   0.000016  -0.000138   0.000052  -0.000084
   28  O  2  Z   -0.000147   0.000208   0.000202  -0.000007   0.000038
   29  O  2 XX   -0.000055  -0.002824  -0.002798  -0.000007  -0.000017
   30  O  2 YY   -0.000043  -0.002780  -0.002783  -0.000050  -0.000016
   31  O  2 ZZ   -0.000092  -0.002862  -0.002813  -0.000020  -0.000038
   32  O  2 XY   -0.000074  -0.000096  -0.000140   0.000014  -0.000013
   33  O  2 XZ    0.000050   0.000122   0.000101  -0.000022   0.000020
   34  O  2 YZ    0.000028   0.000087   0.000081   0.000023   0.000019
   35  O  3  S   -0.000011  -0.703331   0.703342   0.000030   0.000238
   36  O  3  S   -0.000041  -0.014938   0.014982   0.000020   0.000021
   37  O  3  X    0.000013   0.000931  -0.000900   0.000013   0.000012
   38  O  3  Y   -0.000004  -0.000200   0.000201  -0.000012   0.000004
   39  O  3  Z    0.000005   0.000255  -0.000257   0.000002   0.000025
   40  O  3  S    0.000579  -0.002940   0.002757  -0.000086  -0.000032
   41  O  3  X   -0.000236  -0.000422   0.000329  -0.000043   0.000019
   42  O  3  Y   -0.000051   0.000016   0.000138   0.000052   0.000084
   43  O  3  Z   -0.000147  -0.000208   0.000202   0.000007   0.000038
   44  O  3 XX   -0.000055   0.002824  -0.002798   0.000007  -0.000017
   45  O  3 YY   -0.000043   0.002780  -0.002783   0.000050  -0.000016
   46  O  3 ZZ   -0.000092   0.002862  -0.002813   0.000020  -0.000038
   47  O  3 XY   -0.000074   0.000096  -0.000140  -0.000014  -0.000013
   48  O  3 XZ   -0.000050   0.000122  -0.000101  -0.000022  -0.000020
   49  O  3 YZ   -0.000028   0.000087  -0.000081   0.000023  -0.000019
   50  O  4  S    0.000004  -0.000005  -0.000236   0.703348   0.703363
   51  O  4  S   -0.000042  -0.000118   0.000010   0.014764   0.014832
   52  O  4  X   -0.000076   0.000016  -0.000011   0.000719   0.000705
   53  O  4  Y    0.000066   0.000012  -0.000014  -0.000607  -0.000596
   54  O  4  Z   -0.000050  -0.000002  -0.000010   0.000489   0.000518
   55  O  4  S    0.000489   0.000699   0.000026   0.003056   0.002738
   56  O  4  X    0.000236   0.000047   0.000042  -0.000224  -0.000233
   57  O  4  Y   -0.000202  -0.000015   0.000030   0.000187   0.000202
   58  O  4  Z    0.000158   0.000090  -0.000031  -0.000125  -0.000186
   59  O  4 XX   -0.000063  -0.000065   0.000003  -0.002820  -0.002804
   60  O  4 YY   -0.000047  -0.000105  -0.000008  -0.002817  -0.002797
   61  O  4 ZZ   -0.000026  -0.000075  -0.000025  -0.002833  -0.002756
   62  O  4 XY    0.000073   0.000008  -0.000018   0.000012   0.000037
   63  O  4 XZ   -0.000058   0.000023  -0.000003  -0.000028  -0.000000
   64  O  4 YZ    0.000052   0.000026   0.000023   0.000025   0.000001
   65  O  5  S    0.000004   0.000005  -0.000236  -0.703348   0.703363
   66  O  5  S   -0.000042   0.000118   0.000010  -0.014764   0.014832
   67  O  5  X    0.000076   0.000016   0.000011   0.000719  -0.000705
   68  O  5  Y   -0.000066   0.000012   0.000014  -0.000607   0.000596
   69  O  5  Z   -0.000050   0.000002  -0.000010  -0.000489   0.000518
   70  O  5  S    0.000489  -0.000699   0.000026  -0.003056   0.002738
   71  O  5  X   -0.000236   0.000047  -0.000042  -0.000224   0.000233
   72  O  5  Y    0.000202  -0.000015  -0.000030   0.000187  -0.000202
   73  O  5  Z    0.000158  -0.000090  -0.000031   0.000125  -0.000186
   74  O  5 XX   -0.000063   0.000065   0.000003   0.002820  -0.002804
   75  O  5 YY   -0.000047   0.000105  -0.000008   0.002817  -0.002797
   76  O  5 ZZ   -0.000026   0.000075  -0.000025   0.002833  -0.002756
   77  O  5 XY    0.000073  -0.000008  -0.000018  -0.000012   0.000037
   78  O  5 XZ    0.000058   0.000023   0.000003  -0.000028   0.000000
   79  O  5 YZ   -0.000052   0.000026  -0.000023   0.000025  -0.000001
   80  H  6  S   -0.000095   0.000144   0.000099   0.000042  -0.000002
   81  H  6  S   -0.000151  -0.000367  -0.000300  -0.000045  -0.000085
   82  H  6  X    0.000010   0.000120   0.000145  -0.000024  -0.000003
   83  H  6  Y   -0.000020  -0.000183  -0.000186   0.000012  -0.000010
   84  H  6  Z    0.000013   0.000067   0.000062  -0.000001   0.000013
   85  H  7  S   -0.000095  -0.000144   0.000099  -0.000042  -0.000002
   86  H  7  S   -0.000151   0.000367  -0.000300   0.000045  -0.000085
   87  H  7  X   -0.000010   0.000120  -0.000145  -0.000024   0.000003
   88  H  7  Y    0.000020  -0.000183   0.000186   0.000012   0.000010
   89  H  7  Z    0.000013  -0.000067   0.000062   0.000001   0.000013

                      6          7          8          9         10
                   -9.2648    -6.9514    -6.9510    -6.9506    -1.5634
                     A          B          A          B          A   
    1  S  1  S   -0.281935   0.000000   0.001208   0.000000   0.046419
    2  S  1  S    1.031199   0.000000  -0.004599   0.000000  -0.210641
    3  S  1  X    0.000000   0.649415   0.000000   0.752081   0.000000
    4  S  1  Y    0.000000   0.752083   0.000000  -0.649382   0.000000
    5  S  1  Z    0.004009   0.000000   0.993685   0.000000  -0.002394
    6  S  1  S    0.018313   0.000000   0.001648   0.000000   0.417682
    7  S  1  X    0.000000   0.014076   0.000000   0.015836   0.000000
    8  S  1  Y    0.000000   0.016358   0.000000  -0.013755   0.000000
    9  S  1  Z    0.000583   0.000000   0.021283   0.000000   0.008574
   10  S  1  S   -0.002398   0.000000   0.000601   0.000000  -0.074099
   11  S  1  X    0.000000  -0.001852   0.000000  -0.001183   0.000000
   12  S  1  Y    0.000000  -0.002774   0.000000   0.001434   0.000000
   13  S  1  Z   -0.000495   0.000000  -0.002938   0.000000  -0.018235
   14  S  1 XX    0.000973   0.000000  -0.001014   0.000000   0.002188
   15  S  1 YY    0.001024   0.000000  -0.000730   0.000000   0.001851
   16  S  1 ZZ    0.000884   0.000000   0.000149   0.000000  -0.006409
   17  S  1 XY   -0.000118   0.000000   0.000945   0.000000  -0.015996
   18  S  1 XZ    0.000000   0.000968   0.000000  -0.000073   0.000000
   19  S  1 YZ    0.000000   0.001197   0.000000   0.000127   0.000000
   20  O  2  S   -0.000025   0.000119  -0.000095   0.000064  -0.092506
   21  O  2  S    0.000528  -0.000713   0.000573   0.000209   0.200449
   22  O  2  X    0.000155  -0.000220   0.000234   0.000125   0.046051
   23  O  2  Y    0.000116  -0.000193   0.000221  -0.000120   0.016202
   24  O  2  Z   -0.000170   0.000292  -0.000160   0.000022  -0.030686
   25  O  2  S   -0.001694   0.002556  -0.002207  -0.000998   0.205163
   26  O  2  X   -0.000882   0.001257  -0.001165  -0.000762   0.028713
   27  O  2  Y   -0.000261   0.000537  -0.000623   0.000879   0.024051
   28  O  2  Z    0.000676  -0.001123   0.000608  -0.000249  -0.025102
   29  O  2 XX    0.000106  -0.000257   0.000014  -0.000186   0.004808
   30  O  2 YY    0.000078  -0.000217  -0.000034   0.000407   0.002527
   31  O  2 ZZ    0.000175  -0.000075   0.000552   0.000243   0.004301
   32  O  2 XY   -0.000018  -0.000243  -0.000010   0.000105   0.006912
   33  O  2 XZ    0.000147  -0.000075  -0.000078   0.000156  -0.008325
   34  O  2 YZ    0.000216  -0.000187   0.000034  -0.000139  -0.006810
   35  O  3  S   -0.000025  -0.000119  -0.000095  -0.000064  -0.092506
   36  O  3  S    0.000528   0.000713   0.000573  -0.000209   0.200449
   37  O  3  X   -0.000155  -0.000220  -0.000234   0.000125  -0.046051
   38  O  3  Y   -0.000116  -0.000193  -0.000221  -0.000120  -0.016202
   39  O  3  Z   -0.000170  -0.000292  -0.000160  -0.000022  -0.030686
   40  O  3  S   -0.001694  -0.002556  -0.002207   0.000998   0.205163
   41  O  3  X    0.000882   0.001257   0.001165  -0.000762  -0.028713
   42  O  3  Y    0.000261   0.000537   0.000623   0.000879  -0.024051
   43  O  3  Z    0.000676   0.001123   0.000608   0.000249  -0.025102
   44  O  3 XX    0.000106   0.000257   0.000014   0.000186   0.004808
   45  O  3 YY    0.000078   0.000217  -0.000034  -0.000407   0.002527
   46  O  3 ZZ    0.000175   0.000075   0.000552  -0.000243   0.004301
   47  O  3 XY   -0.000018   0.000243  -0.000010  -0.000105   0.006912
   48  O  3 XZ   -0.000147  -0.000075   0.000078   0.000156   0.008325
   49  O  3 YZ   -0.000216  -0.000187  -0.000034  -0.000139   0.006810
   50  O  4  S   -0.000173  -0.000020   0.000319   0.000566  -0.081175
   51  O  4  S    0.000628  -0.000075  -0.000319  -0.000818   0.175745
   52  O  4  X    0.000400   0.000139  -0.000512  -0.000847   0.049251
   53  O  4  Y   -0.000348   0.000164   0.000443   0.000749  -0.042262
   54  O  4  Z    0.000244  -0.000005  -0.000089  -0.000757   0.037370
   55  O  4  S   -0.002038   0.000386   0.000721   0.002533   0.167477
   56  O  4  X   -0.000970  -0.000203   0.000732   0.000810   0.023650
   57  O  4  Y    0.000824  -0.000321  -0.000642  -0.000764  -0.019010
   58  O  4  Z   -0.000577   0.000056   0.000039   0.001026   0.020279
   59  O  4 XX    0.000319  -0.000196  -0.000105  -0.000643   0.006795
   60  O  4 YY    0.000307   0.000100  -0.000051  -0.000440   0.004628
   61  O  4 ZZ    0.000246  -0.000054  -0.000134  -0.000106   0.001850
   62  O  4 XY   -0.000069  -0.000031   0.000199   0.000767  -0.009033
   63  O  4 XZ    0.000028  -0.000069  -0.000273  -0.000506   0.007189
   64  O  4 YZ   -0.000030  -0.000096   0.000235   0.000448  -0.005846
   65  O  5  S   -0.000173   0.000020   0.000319  -0.000566  -0.081175
   66  O  5  S    0.000628   0.000075  -0.000319   0.000818   0.175745
   67  O  5  X   -0.000400   0.000139   0.000512  -0.000847  -0.049251
   68  O  5  Y    0.000348   0.000164  -0.000443   0.000749   0.042262
   69  O  5  Z    0.000244   0.000005  -0.000089   0.000757   0.037370
   70  O  5  S   -0.002038  -0.000386   0.000721  -0.002533   0.167477
   71  O  5  X    0.000970  -0.000203  -0.000732   0.000810  -0.023650
   72  O  5  Y   -0.000824  -0.000321   0.000642  -0.000764   0.019010
   73  O  5  Z   -0.000577  -0.000056   0.000039  -0.001026   0.020279
   74  O  5 XX    0.000319   0.000196  -0.000105   0.000643   0.006795
   75  O  5 YY    0.000307  -0.000100  -0.000051   0.000440   0.004628
   76  O  5 ZZ    0.000246   0.000054  -0.000134   0.000106   0.001850
   77  O  5 XY   -0.000069   0.000031   0.000199  -0.000767  -0.009033
   78  O  5 XZ   -0.000028  -0.000069   0.000273  -0.000506  -0.007189
   79  O  5 YZ    0.000030  -0.000096  -0.000235   0.000448   0.005846
   80  H  6  S    0.000252  -0.000449   0.000389   0.000377   0.051557
   81  H  6  S    0.000597  -0.000699   0.000395   0.000752   0.013475
   82  H  6  X    0.000050  -0.000029   0.000047   0.000023  -0.004971
   83  H  6  Y    0.000154  -0.000173   0.000156   0.000051   0.009425
   84  H  6  Z   -0.000140   0.000182  -0.000057  -0.000048  -0.003954
   85  H  7  S    0.000252   0.000449   0.000389  -0.000377   0.051557
   86  H  7  S    0.000597   0.000699   0.000395  -0.000752   0.013475
   87  H  7  X   -0.000050  -0.000029  -0.000047   0.000023   0.004971
   88  H  7  Y   -0.000154  -0.000173  -0.000156   0.000051  -0.009425
   89  H  7  Z   -0.000140  -0.000182  -0.000057   0.000048  -0.003954

                     11         12         13         14         15
                   -1.4360    -1.4098    -1.3932    -0.9318    -0.8281
                     B          A          B          A          B   
    1  S  1  S    0.000000  -0.015298   0.000000   0.044031   0.000000
    2  S  1  S    0.000000   0.070297   0.000000  -0.193170   0.000000
    3  S  1  X    0.039594   0.000000   0.105245   0.000000  -0.120528
    4  S  1  Y    0.059116   0.000000  -0.085382   0.000000  -0.082264
    5  S  1  Z    0.000000  -0.089224   0.000000  -0.076444   0.000000
    6  S  1  S    0.000000  -0.145694   0.000000   0.475259   0.000000
    7  S  1  X   -0.084381   0.000000  -0.233300   0.000000   0.310346
    8  S  1  Y   -0.127298   0.000000   0.189395   0.000000   0.207639
    9  S  1  Z    0.000000   0.193338   0.000000   0.190804   0.000000
   10  S  1  S    0.000000  -0.005259   0.000000   0.028055   0.000000
   11  S  1  X    0.015323   0.000000   0.017437   0.000000   0.024480
   12  S  1  Y    0.014513   0.000000  -0.018827   0.000000   0.009104
   13  S  1  Z    0.000000  -0.024231   0.000000  -0.002184   0.000000
   14  S  1 XX    0.000000  -0.015907   0.000000   0.000460   0.000000
   15  S  1 YY    0.000000   0.003085   0.000000  -0.010578   0.000000
   16  S  1 ZZ    0.000000   0.024284   0.000000   0.007200   0.000000
   17  S  1 XY    0.000000   0.070083   0.000000   0.032814   0.000000
   18  S  1 XZ   -0.036800   0.000000   0.050651   0.000000   0.050300
   19  S  1 YZ   -0.038552   0.000000  -0.049660   0.000000   0.020008
   20  O  2  S   -0.149549  -0.108517  -0.010753   0.041814  -0.004178
   21  O  2  S    0.338704   0.246767   0.022810  -0.102555   0.006838
   22  O  2  X    0.052881   0.039611  -0.007639   0.047778   0.065179
   23  O  2  Y   -0.014002  -0.010258   0.010365   0.209144  -0.238840
   24  O  2  Z   -0.022398   0.000826  -0.002788  -0.132018   0.206439
   25  O  2  S    0.317221   0.233049   0.029574  -0.102017   0.007650
   26  O  2  X    0.028633   0.020796   0.000113   0.030810   0.044580
   27  O  2  Y    0.003367   0.001874  -0.000873   0.117554  -0.134585
   28  O  2  Z   -0.017412  -0.003397   0.001749  -0.073293   0.118169
   29  O  2 XX    0.007564   0.005152  -0.000010   0.000971   0.005795
   30  O  2 YY    0.006159   0.004187  -0.000311  -0.003861  -0.000310
   31  O  2 ZZ    0.005328   0.003181  -0.000674   0.003488  -0.012549
   32  O  2 XY    0.002525   0.000306  -0.000075   0.017118  -0.016057
   33  O  2 XZ   -0.005498  -0.002185  -0.000347  -0.011661   0.011494
   34  O  2 YZ   -0.005319  -0.002838  -0.000187  -0.006383   0.005602
   35  O  3  S    0.149549  -0.108517   0.010753   0.041814   0.004178
   36  O  3  S   -0.338704   0.246767  -0.022810  -0.102555  -0.006838
   37  O  3  X    0.052881  -0.039611  -0.007639  -0.047778   0.065179
   38  O  3  Y   -0.014002   0.010258   0.010365  -0.209144  -0.238840
   39  O  3  Z    0.022398   0.000826   0.002788  -0.132018  -0.206439
   40  O  3  S   -0.317221   0.233049  -0.029574  -0.102017  -0.007650
   41  O  3  X    0.028633  -0.020796   0.000113  -0.030810   0.044580
   42  O  3  Y    0.003367  -0.001874  -0.000873  -0.117554  -0.134585
   43  O  3  Z    0.017412  -0.003397  -0.001749  -0.073293  -0.118169
   44  O  3 XX   -0.007564   0.005152   0.000010   0.000971  -0.005795
   45  O  3 YY   -0.006159   0.004187   0.000311  -0.003861   0.000310
   46  O  3 ZZ   -0.005328   0.003181   0.000674   0.003488   0.012549
   47  O  3 XY   -0.002525   0.000306   0.000075   0.017118   0.016057
   48  O  3 XZ   -0.005498   0.002185  -0.000347   0.011661   0.011494
   49  O  3 YZ   -0.005319   0.002838  -0.000187   0.006383   0.005602
   50  O  4  S    0.008076   0.100598  -0.145674   0.069931  -0.020340
   51  O  4  S   -0.018056  -0.225209   0.327261  -0.163101   0.044262
   52  O  4  X   -0.011022  -0.046724   0.054781   0.049964   0.053211
   53  O  4  Y   -0.006463   0.040456  -0.047845  -0.054879   0.092184
   54  O  4  Z   -0.003260  -0.021321   0.047943   0.071415  -0.047422
   55  O  4  S   -0.014151  -0.202513   0.288426  -0.200877   0.080225
   56  O  4  X   -0.004482  -0.018637   0.016422   0.025189   0.038551
   57  O  4  Y   -0.003363   0.015226  -0.011788  -0.028022   0.047991
   58  O  4  Z   -0.001314  -0.008047   0.017016   0.035539  -0.023311
   59  O  4 XX   -0.001094  -0.006360   0.006449   0.001070   0.007262
   60  O  4 YY    0.000522  -0.004708   0.004774  -0.000350  -0.008482
   61  O  4 ZZ   -0.000249  -0.001088   0.005779   0.001523  -0.003182
   62  O  4 XY    0.000295   0.006180  -0.006510  -0.004638   0.002076
   63  O  4 XZ   -0.000454  -0.004222   0.007115   0.005683   0.000931
   64  O  4 YZ    0.000374   0.003357  -0.005619  -0.005116   0.005114
   65  O  5  S   -0.008076   0.100598   0.145674   0.069931   0.020340
   66  O  5  S    0.018056  -0.225209  -0.327261  -0.163101  -0.044262
   67  O  5  X   -0.011022   0.046724   0.054781  -0.049964   0.053211
   68  O  5  Y   -0.006463  -0.040456  -0.047845   0.054879   0.092184
   69  O  5  Z    0.003260  -0.021321  -0.047943   0.071415   0.047422
   70  O  5  S    0.014151  -0.202513  -0.288426  -0.200877  -0.080225
   71  O  5  X   -0.004482   0.018637   0.016422  -0.025189   0.038551
   72  O  5  Y   -0.003363  -0.015226  -0.011788   0.028022   0.047991
   73  O  5  Z    0.001314  -0.008047  -0.017016   0.035539   0.023311
   74  O  5 XX    0.001094  -0.006360  -0.006449   0.001070  -0.007262
   75  O  5 YY   -0.000522  -0.004708  -0.004774  -0.000350   0.008482
   76  O  5 ZZ    0.000249  -0.001088  -0.005779   0.001523   0.003182
   77  O  5 XY   -0.000295   0.006180   0.006510  -0.004638  -0.002076
   78  O  5 XZ   -0.000454   0.004222   0.007115  -0.005683   0.000931
   79  O  5 YZ    0.000374  -0.003357  -0.005619   0.005116   0.005114
   80  H  6  S    0.098548   0.073381  -0.001561  -0.120178   0.154846
   81  H  6  S    0.007428   0.007009  -0.009521  -0.033519   0.056585
   82  H  6  X   -0.009482  -0.006916  -0.000719   0.011520  -0.011071
   83  H  6  Y    0.014177   0.010661  -0.000280  -0.008288   0.011784
   84  H  6  Z   -0.005612  -0.003285   0.000783   0.001365  -0.000022
   85  H  7  S   -0.098548   0.073381   0.001561  -0.120178  -0.154846
   86  H  7  S   -0.007428   0.007009   0.009521  -0.033519  -0.056585
   87  H  7  X   -0.009482   0.006916  -0.000719  -0.011520  -0.011071
   88  H  7  Y    0.014177  -0.010661  -0.000280   0.008288   0.011784
   89  H  7  Z    0.005612  -0.003285  -0.000783   0.001365   0.000022

                     16         17         18         19         20
                   -0.7491    -0.7323    -0.7011    -0.6427    -0.6266
                     A          B          A          B          A   
    1  S  1  S   -0.023568   0.000000   0.003995   0.000000   0.003265
    2  S  1  S    0.100867   0.000000  -0.020114   0.000000  -0.014553
    3  S  1  X    0.000000   0.017593   0.000000  -0.123234   0.000000
    4  S  1  Y    0.000000  -0.142287   0.000000   0.062249   0.000000
    5  S  1  Z   -0.132939   0.000000  -0.077158   0.000000   0.043910
    6  S  1  S   -0.280277   0.000000   0.034247   0.000000   0.040151
    7  S  1  X    0.000000  -0.053421   0.000000   0.336045   0.000000
    8  S  1  Y    0.000000   0.374912   0.000000  -0.174747   0.000000
    9  S  1  Z    0.347709   0.000000   0.203982   0.000000  -0.118960
   10  S  1  S   -0.004375   0.000000   0.021328   0.000000   0.027625
   11  S  1  X    0.000000  -0.028298   0.000000  -0.023755   0.000000
   12  S  1  Y    0.000000   0.071105   0.000000   0.066040   0.000000
   13  S  1  Z    0.037212   0.000000   0.057383   0.000000   0.028809
   14  S  1 XX    0.023485   0.000000  -0.052040   0.000000  -0.021510
   15  S  1 YY   -0.018945   0.000000   0.049605   0.000000  -0.065763
   16  S  1 ZZ    0.013468   0.000000   0.006975   0.000000   0.080251
   17  S  1 XY    0.024343   0.000000  -0.025802   0.000000  -0.046284
   18  S  1 XZ    0.000000  -0.009588   0.000000  -0.074147   0.000000
   19  S  1 YZ    0.000000   0.018978   0.000000   0.036710   0.000000
   20  O  2  S   -0.010663  -0.040727   0.050898  -0.028279  -0.004544
   21  O  2  S    0.030606   0.101020  -0.118300   0.068042   0.011925
   22  O  2  X   -0.030709  -0.208852   0.343070  -0.138619   0.063741
   23  O  2  Y    0.213104   0.097461  -0.078865   0.152128   0.180032
   24  O  2  Z    0.026169   0.150097   0.056882   0.060465   0.352928
   25  O  2  S    0.023534   0.148205  -0.213201   0.122455   0.009600
   26  O  2  X   -0.027126  -0.134014   0.232448  -0.091183   0.051874
   27  O  2  Y    0.135984   0.062737  -0.059090   0.102377   0.138590
   28  O  2  Z    0.028957   0.098722   0.041807   0.041552   0.273622
   29  O  2 XX    0.000923  -0.011787   0.024931  -0.006597   0.007675
   30  O  2 YY    0.003883   0.010264  -0.003751   0.003114   0.004045
   31  O  2 ZZ    0.000577   0.000430  -0.010694   0.001963  -0.014645
   32  O  2 XY    0.013457   0.004363  -0.005452   0.009558   0.010636
   33  O  2 XZ    0.002081   0.012064  -0.004769   0.003277   0.017883
   34  O  2 YZ   -0.003162  -0.001581   0.002216  -0.001727  -0.001622
   35  O  3  S   -0.010663   0.040727   0.050898   0.028279  -0.004544
   36  O  3  S    0.030606  -0.101020  -0.118300  -0.068042   0.011925
   37  O  3  X    0.030709  -0.208852  -0.343070  -0.138619  -0.063741
   38  O  3  Y   -0.213104   0.097461   0.078865   0.152128  -0.180032
   39  O  3  Z    0.026169  -0.150097   0.056882  -0.060465   0.352928
   40  O  3  S    0.023534  -0.148205  -0.213201  -0.122455   0.009600
   41  O  3  X    0.027126  -0.134014  -0.232448  -0.091183  -0.051874
   42  O  3  Y   -0.135984   0.062737   0.059090   0.102377  -0.138590
   43  O  3  Z    0.028957  -0.098722   0.041807  -0.041552   0.273622
   44  O  3 XX    0.000923   0.011787   0.024931   0.006597   0.007675
   45  O  3 YY    0.003883  -0.010264  -0.003751  -0.003114   0.004045
   46  O  3 ZZ    0.000577  -0.000430  -0.010694  -0.001963  -0.014645
   47  O  3 XY    0.013457  -0.004363  -0.005452  -0.009558   0.010636
   48  O  3 XZ   -0.002081   0.012064   0.004769   0.003277  -0.017883
   49  O  3 YZ    0.003162  -0.001581  -0.002216  -0.001727   0.001622
   50  O  4  S   -0.063181   0.046874  -0.009561  -0.043418   0.009689
   51  O  4  S    0.147382  -0.101542   0.017403   0.106413  -0.018281
   52  O  4  X   -0.211809   0.154664  -0.008093  -0.140051   0.080017
   53  O  4  Y    0.147404   0.017447   0.113637   0.241608  -0.115726
   54  O  4  Z    0.003016   0.150435   0.072652  -0.164099  -0.083750
   55  O  4  S    0.234057  -0.214646   0.054895   0.162791  -0.050373
   56  O  4  X   -0.118913   0.078110   0.009230  -0.069386   0.048876
   57  O  4  Y    0.077252   0.029350   0.075124   0.142728  -0.082702
   58  O  4  Z    0.013885   0.083526   0.049493  -0.096784  -0.078288
   59  O  4 XX   -0.011965   0.011984  -0.003289   0.003309   0.006371
   60  O  4 YY   -0.005442  -0.006718  -0.009870  -0.006169   0.007730
   61  O  4 ZZ    0.008984   0.009294   0.004971  -0.002108  -0.005775
   62  O  4 XY    0.014345  -0.002332   0.005471   0.011861  -0.010509
   63  O  4 XZ   -0.004576   0.012115   0.005182  -0.010121  -0.004062
   64  O  4 YZ    0.002338  -0.003708   0.001627   0.013301   0.000600
   65  O  5  S   -0.063181  -0.046874  -0.009561   0.043418   0.009689
   66  O  5  S    0.147382   0.101542   0.017403  -0.106413  -0.018281
   67  O  5  X    0.211809   0.154664   0.008093  -0.140051  -0.080017
   68  O  5  Y   -0.147404   0.017447  -0.113637   0.241608   0.115726
   69  O  5  Z    0.003016  -0.150435   0.072652   0.164099  -0.083750
   70  O  5  S    0.234057   0.214646   0.054895  -0.162791  -0.050373
   71  O  5  X    0.118913   0.078110  -0.009230  -0.069386  -0.048876
   72  O  5  Y   -0.077252   0.029350  -0.075124   0.142728   0.082702
   73  O  5  Z    0.013885  -0.083526   0.049493   0.096784  -0.078288
   74  O  5 XX   -0.011965  -0.011984  -0.003289  -0.003309   0.006371
   75  O  5 YY   -0.005442   0.006718  -0.009870   0.006169   0.007730
   76  O  5 ZZ    0.008984  -0.009294   0.004971   0.002108  -0.005775
   77  O  5 XY    0.014345   0.002332   0.005471  -0.011861  -0.010509
   78  O  5 XZ    0.004576   0.012115  -0.005182  -0.010121   0.004062
   79  O  5 YZ   -0.002338  -0.003708  -0.001627   0.013301  -0.000600
   80  H  6  S   -0.088503  -0.055361   0.117218  -0.087971  -0.001249
   81  H  6  S   -0.030660  -0.020182   0.052405  -0.039533  -0.006867
   82  H  6  X    0.007046  -0.001567   0.001239   0.003645   0.001615
   83  H  6  Y   -0.003692  -0.004715   0.011420  -0.004802   0.004875
   84  H  6  Z    0.003740   0.007384  -0.003425   0.004524   0.010865
   85  H  7  S   -0.088503   0.055361   0.117218   0.087971  -0.001249
   86  H  7  S   -0.030660   0.020182   0.052405   0.039533  -0.006867
   87  H  7  X   -0.007046  -0.001567  -0.001239   0.003645  -0.001615
   88  H  7  Y    0.003692  -0.004715  -0.011420  -0.004802  -0.004875
   89  H  7  Z    0.003740  -0.007384  -0.003425  -0.004524   0.010865

                     21         22         23         24         25
                   -0.5766    -0.5603    -0.5310    -0.5277    -0.5096
                     B          A          B          A          B   
    1  S  1  S    0.000000   0.004734   0.000000  -0.000588   0.000000
    2  S  1  S    0.000000  -0.020014   0.000000   0.002183   0.000000
    3  S  1  X    0.021844   0.000000   0.009810   0.000000   0.003272
    4  S  1  Y    0.007137   0.000000   0.019481   0.000000   0.003902
    5  S  1  Z    0.000000   0.014254   0.000000   0.011429   0.000000
    6  S  1  S    0.000000   0.059648   0.000000  -0.006912   0.000000
    7  S  1  X   -0.058080   0.000000  -0.026677   0.000000  -0.005451
    8  S  1  Y   -0.019133   0.000000  -0.054227   0.000000  -0.014222
    9  S  1  Z    0.000000  -0.041983   0.000000  -0.031725   0.000000
   10  S  1  S    0.000000  -0.002644   0.000000   0.007605   0.000000
   11  S  1  X    0.101241   0.000000  -0.099287   0.000000  -0.056215
   12  S  1  Y    0.046260   0.000000  -0.045171   0.000000   0.078563
   13  S  1  Z    0.000000   0.139723   0.000000   0.019172   0.000000
   14  S  1 XX    0.000000   0.088333   0.000000  -0.084853   0.000000
   15  S  1 YY    0.000000   0.004067   0.000000   0.095551   0.000000
   16  S  1 ZZ    0.000000  -0.092674   0.000000  -0.012901   0.000000
   17  S  1 XY    0.000000  -0.127372   0.000000  -0.039916   0.000000
   18  S  1 XZ   -0.046616   0.000000   0.036722   0.000000  -0.091016
   19  S  1 YZ   -0.085913   0.000000   0.092232   0.000000   0.049574
   20  O  2  S    0.004566   0.003201   0.006730  -0.012095   0.008874
   21  O  2  S   -0.023077   0.005322  -0.007586   0.031645  -0.023811
   22  O  2  X    0.317632  -0.110077  -0.005397  -0.114785   0.095719
   23  O  2  Y    0.263025  -0.048415   0.057111   0.060179  -0.051127
   24  O  2  Z    0.153010   0.144449   0.285207   0.051581  -0.062241
   25  O  2  S    0.031634  -0.069061  -0.074249   0.040226  -0.027404
   26  O  2  X    0.239409  -0.101909  -0.007828  -0.076491   0.075575
   27  O  2  Y    0.205672  -0.043660   0.041795   0.033319  -0.039996
   28  O  2  Z    0.105124   0.102148   0.228965   0.040305  -0.049817
   29  O  2 XX    0.018311  -0.001917   0.004210  -0.004747   0.003063
   30  O  2 YY   -0.006804   0.007635   0.006387   0.002932  -0.000797
   31  O  2 ZZ   -0.014858   0.001220  -0.005836   0.002144  -0.001564
   32  O  2 XY    0.014555  -0.006625   0.000116   0.003431  -0.003956
   33  O  2 XZ   -0.001789   0.009688   0.013991   0.000823  -0.003574
   34  O  2 YZ   -0.007593  -0.000263  -0.000850   0.001822  -0.000037
   35  O  3  S   -0.004566   0.003201  -0.006730  -0.012095  -0.008874
   36  O  3  S    0.023077   0.005322   0.007586   0.031645   0.023811
   37  O  3  X    0.317632   0.110077  -0.005397   0.114785   0.095719
   38  O  3  Y    0.263025   0.048415   0.057111  -0.060179  -0.051127
   39  O  3  Z   -0.153010   0.144449  -0.285207   0.051581   0.062241
   40  O  3  S   -0.031634  -0.069061   0.074249   0.040226   0.027404
   41  O  3  X    0.239409   0.101909  -0.007828   0.076491   0.075575
   42  O  3  Y    0.205672   0.043660   0.041795  -0.033319  -0.039996
   43  O  3  Z   -0.105124   0.102148  -0.228965   0.040305   0.049817
   44  O  3 XX   -0.018311  -0.001917  -0.004210  -0.004747  -0.003063
   45  O  3 YY    0.006804   0.007635  -0.006387   0.002932   0.000797
   46  O  3 ZZ    0.014858   0.001220   0.005836   0.002144   0.001564
   47  O  3 XY   -0.014555  -0.006625  -0.000116   0.003431   0.003956
   48  O  3 XZ   -0.001789  -0.009688   0.013991  -0.000823  -0.003574
   49  O  3 YZ   -0.007593   0.000263  -0.000850  -0.001822  -0.000037
   50  O  4  S    0.002330   0.010919  -0.001570   0.002511  -0.001026
   51  O  4  S   -0.012041  -0.035083   0.009118  -0.007995   0.011153
   52  O  4  X    0.112020  -0.058131  -0.278441   0.283217  -0.164236
   53  O  4  Y    0.053046  -0.062007  -0.207901   0.308585   0.223172
   54  O  4  Z   -0.002622   0.378881   0.052604   0.056574   0.335466
   55  O  4  S    0.013302  -0.011207  -0.014347  -0.006166  -0.033584
   56  O  4  X    0.074530  -0.054941  -0.203587   0.222699  -0.123014
   57  O  4  Y    0.033339  -0.043316  -0.153535   0.249658   0.168390
   58  O  4  Z   -0.001196   0.268482   0.041045   0.041447   0.264413
   59  O  4 XX    0.005736  -0.019016  -0.023519   0.024643  -0.007291
   60  O  4 YY   -0.007831  -0.006792   0.021546  -0.027578  -0.010732
   61  O  4 ZZ   -0.003806   0.014516   0.007432   0.001406   0.031677
   62  O  4 XY   -0.001057   0.005307  -0.000917   0.005399   0.013723
   63  O  4 XZ    0.002907   0.011381  -0.005926   0.013192   0.015614
   64  O  4 YZ    0.001831  -0.014298  -0.010587   0.011158  -0.009845
   65  O  5  S   -0.002330   0.010919   0.001570   0.002511   0.001026
   66  O  5  S    0.012041  -0.035083  -0.009118  -0.007995  -0.011153
   67  O  5  X    0.112020   0.058131  -0.278441  -0.283217  -0.164236
   68  O  5  Y    0.053046   0.062007  -0.207901  -0.308585   0.223172
   69  O  5  Z    0.002622   0.378881  -0.052604   0.056574  -0.335466
   70  O  5  S   -0.013302  -0.011207   0.014347  -0.006166   0.033584
   71  O  5  X    0.074530   0.054941  -0.203587  -0.222699  -0.123014
   72  O  5  Y    0.033339   0.043316  -0.153535  -0.249658   0.168390
   73  O  5  Z    0.001196   0.268482  -0.041045   0.041447  -0.264413
   74  O  5 XX   -0.005736  -0.019016   0.023519   0.024643   0.007291
   75  O  5 YY    0.007831  -0.006792  -0.021546  -0.027578   0.010732
   76  O  5 ZZ    0.003806   0.014516  -0.007432   0.001406  -0.031677
   77  O  5 XY    0.001057   0.005307   0.000917   0.005399  -0.013723
   78  O  5 XZ    0.002907  -0.011381  -0.005926  -0.013192   0.015614
   79  O  5 YZ    0.001831   0.014298  -0.010587  -0.011158  -0.009845
   80  H  6  S   -0.000842   0.021216   0.021829  -0.050989   0.036170
   81  H  6  S   -0.004216   0.016839   0.018705  -0.013383   0.011908
   82  H  6  X    0.008494  -0.002313  -0.000477   0.002151  -0.001577
   83  H  6  Y    0.008782  -0.000066   0.002709  -0.002820   0.001419
   84  H  6  Z    0.004993   0.003600   0.007777   0.001182  -0.001552
   85  H  7  S    0.000842   0.021216  -0.021829  -0.050989  -0.036170
   86  H  7  S    0.004216   0.016839  -0.018705  -0.013383  -0.011908
   87  H  7  X    0.008494   0.002313  -0.000477  -0.002151  -0.001577
   88  H  7  Y    0.008782   0.000066   0.002709   0.002820   0.001419
   89  H  7  Z   -0.004993   0.003600  -0.007777   0.001182   0.001552

                     26         27         28         29         30
                    0.1648     0.2005     0.2580     0.2581     0.2798
                     A          B          B          A          A   
    1  S  1  S    0.019456   0.000000   0.000000   0.015408   0.053421
    2  S  1  S   -0.106536   0.000000   0.000000  -0.107170  -0.198021
    3  S  1  X    0.000000   0.074627  -0.119944   0.000000   0.000000
    4  S  1  Y    0.000000   0.040621  -0.179162   0.000000   0.000000
    5  S  1  Z   -0.045559   0.000000   0.000000   0.137922  -0.164979
    6  S  1  S    0.157733   0.000000   0.000000   0.050109   0.794336
    7  S  1  X    0.000000  -0.239831   0.383623   0.000000   0.000000
    8  S  1  Y    0.000000  -0.134207   0.573707   0.000000   0.000000
    9  S  1  Z    0.139599   0.000000   0.000000  -0.447995   0.555734
   10  S  1  S    0.892576   0.000000   0.000000   1.421615   0.625005
   11  S  1  X    0.000000  -0.226175   0.617953   0.000000   0.000000
   12  S  1  Y    0.000000  -0.017326   0.875600   0.000000   0.000000
   13  S  1  Z   -0.020924   0.000000   0.000000  -0.891891   0.408397
   14  S  1 XX    0.021005   0.000000   0.000000  -0.013627  -0.028124
   15  S  1 YY   -0.010888   0.000000   0.000000   0.043030   0.018765
   16  S  1 ZZ    0.031405   0.000000   0.000000   0.002894   0.047458
   17  S  1 XY    0.026235   0.000000   0.000000   0.161561  -0.037394
   18  S  1 XZ    0.000000  -0.032311  -0.127974   0.000000   0.000000
   19  S  1 YZ    0.000000   0.044935  -0.075460   0.000000   0.000000
   20  O  2  S    0.073551   0.062711  -0.023001  -0.008390   0.024682
   21  O  2  S   -0.092860  -0.061932   0.055522   0.006020  -0.107776
   22  O  2  X   -0.158357  -0.097457   0.026802   0.070672  -0.144254
   23  O  2  Y    0.031339   0.132436   0.092097   0.020141  -0.267076
   24  O  2  Z    0.016584   0.006222  -0.202078   0.122809   0.161845
   25  O  2  S   -0.860468  -0.818048   0.209498   0.153936  -0.007266
   26  O  2  X   -0.320814  -0.239431   0.008463   0.087195  -0.118284
   27  O  2  Y    0.140062   0.285268   0.257514  -0.043126  -0.460490
   28  O  2  Z    0.035425  -0.035191  -0.364849   0.183761   0.269216
   29  O  2 XX    0.014238   0.016239   0.000596  -0.011526  -0.013979
   30  O  2 YY    0.029347   0.032130   0.007722  -0.020171  -0.003649
   31  O  2 ZZ    0.026347   0.037964  -0.015537   0.006894  -0.029875
   32  O  2 XY    0.005642   0.006473   0.003988  -0.010449   0.006983
   33  O  2 XZ    0.006530   0.002226  -0.000538   0.007504  -0.003623
   34  O  2 YZ    0.002692  -0.006155   0.002753   0.006005  -0.008721
   35  O  3  S    0.073551  -0.062711   0.023001  -0.008390   0.024682
   36  O  3  S   -0.092860   0.061932  -0.055522   0.006020  -0.107776
   37  O  3  X    0.158357  -0.097457   0.026802  -0.070672   0.144254
   38  O  3  Y   -0.031339   0.132436   0.092097  -0.020141   0.267076
   39  O  3  Z    0.016584  -0.006222   0.202078   0.122809   0.161845
   40  O  3  S   -0.860468   0.818048  -0.209498   0.153936  -0.007266
   41  O  3  X    0.320814  -0.239431   0.008463  -0.087195   0.118284
   42  O  3  Y   -0.140062   0.285268   0.257514   0.043126   0.460490
   43  O  3  Z    0.035425   0.035191   0.364849   0.183761   0.269216
   44  O  3 XX    0.014238  -0.016239  -0.000596  -0.011526  -0.013979
   45  O  3 YY    0.029347  -0.032130  -0.007722  -0.020171  -0.003649
   46  O  3 ZZ    0.026347  -0.037964   0.015537   0.006894  -0.029875
   47  O  3 XY    0.005642  -0.006473  -0.003988  -0.010449   0.006983
   48  O  3 XZ   -0.006530   0.002226  -0.000538  -0.007504   0.003623
   49  O  3 YZ   -0.002692  -0.006155   0.002753  -0.006005   0.008721
   50  O  4  S    0.033596   0.003810   0.004775   0.060066   0.014830
   51  O  4  S   -0.056749  -0.001119  -0.009980  -0.079157  -0.040555
   52  O  4  X   -0.056354   0.050240  -0.171725  -0.196563  -0.074057
   53  O  4  Y    0.045218   0.111602  -0.158053   0.166012   0.059953
   54  O  4  Z   -0.092154  -0.022363  -0.027671   0.099104  -0.134448
   55  O  4  S   -0.336894  -0.079182  -0.060584  -0.770094  -0.087753
   56  O  4  X   -0.132764   0.060499  -0.250565  -0.355460  -0.071992
   57  O  4  Y    0.098972   0.117384  -0.249965   0.312212   0.062159
   58  O  4  Z   -0.131748  -0.024193  -0.031113   0.079170  -0.192035
   59  O  4 XX   -0.001161   0.001944   0.013594   0.020530  -0.008009
   60  O  4 YY    0.005901   0.002793  -0.013515   0.022418  -0.010890
   61  O  4 ZZ    0.007890   0.004502   0.002701   0.013477   0.003721
   62  O  4 XY    0.010619  -0.000169   0.001992   0.011778   0.004123
   63  O  4 XZ   -0.010783   0.001341  -0.002918  -0.009536   0.003656
   64  O  4 YZ    0.007185  -0.004633  -0.007727   0.009290  -0.001315
   65  O  5  S    0.033596  -0.003810  -0.004775   0.060066   0.014830
   66  O  5  S   -0.056749   0.001119   0.009980  -0.079157  -0.040555
   67  O  5  X    0.056354   0.050240  -0.171725   0.196563   0.074057
   68  O  5  Y   -0.045218   0.111602  -0.158053  -0.166012  -0.059953
   69  O  5  Z   -0.092154   0.022363   0.027671   0.099104  -0.134448
   70  O  5  S   -0.336894   0.079182   0.060584  -0.770094  -0.087753
   71  O  5  X    0.132764   0.060499  -0.250565   0.355460   0.071992
   72  O  5  Y   -0.098972   0.117384  -0.249965  -0.312212  -0.062159
   73  O  5  Z   -0.131748   0.024193   0.031113   0.079170  -0.192035
   74  O  5 XX   -0.001161  -0.001944  -0.013594   0.020530  -0.008009
   75  O  5 YY    0.005901  -0.002793   0.013515   0.022418  -0.010890
   76  O  5 ZZ    0.007890  -0.004502  -0.002701   0.013477   0.003721
   77  O  5 XY    0.010619   0.000169  -0.001992   0.011778   0.004123
   78  O  5 XZ    0.010783   0.001341  -0.002918   0.009536  -0.003656
   79  O  5 YZ   -0.007185  -0.004633  -0.007727  -0.009290   0.001315
   80  H  6  S    0.070579   0.087894   0.036559  -0.023655  -0.043350
   81  H  6  S    0.892958   1.085608   0.539285  -0.269366  -0.626823
   82  H  6  X   -0.002289  -0.000590   0.000872   0.001189  -0.008424
   83  H  6  Y   -0.000060   0.000480   0.004749   0.003008  -0.009974
   84  H  6  Z    0.000160   0.002626  -0.008555   0.003713   0.006841
   85  H  7  S    0.070579  -0.087894  -0.036559  -0.023655  -0.043350
   86  H  7  S    0.892958  -1.085608  -0.539285  -0.269366  -0.626823
   87  H  7  X    0.002289  -0.000590   0.000872  -0.001189   0.008424
   88  H  7  Y    0.000060   0.000480   0.004749  -0.003008   0.009974
   89  H  7  Z    0.000160  -0.002626   0.008555   0.003713   0.006841

                     31         32         33         34         35
                    0.3165     0.4737     0.4839     0.5252     0.5957
                     B          A          B          A          B   
    1  S  1  S    0.000000  -0.056692   0.000000   0.010607   0.000000
    2  S  1  S    0.000000  -0.011733   0.000000  -0.090417   0.000000
    3  S  1  X   -0.108854   0.000000   0.177362   0.000000  -0.184534
    4  S  1  Y    0.069932   0.000000   0.176367   0.000000   0.181857
    5  S  1  Z    0.000000  -0.061308   0.000000   0.234822   0.000000
    6  S  1  S    0.000000  -1.609350   0.000000   0.003285   0.000000
    7  S  1  X    0.368763   0.000000  -0.740621   0.000000   0.730343
    8  S  1  Y   -0.231296   0.000000  -0.755530   0.000000  -0.755859
    9  S  1  Z    0.000000   0.156194   0.000000  -1.016455   0.000000
   10  S  1  S    0.000000   3.744070   0.000000   1.089076   0.000000
   11  S  1  X    1.451096   0.000000   1.340616   0.000000  -1.255037
   12  S  1  Y   -1.187527   0.000000   1.490495   0.000000   1.498205
   13  S  1  Z    0.000000   0.726088   0.000000   2.154495   0.000000
   14  S  1 XX    0.000000  -0.034605   0.000000  -0.068585   0.000000
   15  S  1 YY    0.000000   0.006507   0.000000   0.022674   0.000000
   16  S  1 ZZ    0.000000  -0.000647   0.000000   0.027778   0.000000
   17  S  1 XY    0.000000  -0.176833   0.000000   0.179240   0.000000
   18  S  1 XZ    0.135413   0.000000   0.022716   0.000000   0.234534
   19  S  1 YZ   -0.129613   0.000000   0.065778   0.000000  -0.300095
   20  O  2  S   -0.014825   0.027023  -0.010751   0.023726   0.007910
   21  O  2  S    0.028839   0.010627  -0.090057   0.042421  -0.077713
   22  O  2  X   -0.123011   0.029949  -0.115355   0.030728   0.004414
   23  O  2  Y    0.084846  -0.098487  -0.105889  -0.041204   0.038113
   24  O  2  Z    0.014395  -0.041628   0.052369  -0.078472  -0.047539
   25  O  2  S    0.120377  -0.654267   0.585126  -0.645105  -0.014710
   26  O  2  X   -0.200257  -0.124321  -0.071281  -0.134499   0.095741
   27  O  2  Y    0.191151  -0.406348   0.010185  -0.309510  -0.112884
   28  O  2  Z   -0.016624   0.232856  -0.158857   0.044268  -0.012333
   29  O  2 XX    0.014328   0.036151  -0.051612   0.024621   0.022336
   30  O  2 YY   -0.031958   0.015830  -0.035083   0.006927  -0.058710
   31  O  2 ZZ    0.001203  -0.001683  -0.012002   0.044708  -0.024668
   32  O  2 XY    0.016641  -0.016989   0.010332  -0.034372  -0.001072
   33  O  2 XZ   -0.007846   0.024193  -0.025840   0.014440  -0.023748
   34  O  2 YZ    0.010059   0.043836  -0.037285   0.027042   0.015501
   35  O  3  S    0.014825   0.027023   0.010751   0.023726  -0.007910
   36  O  3  S   -0.028839   0.010627   0.090057   0.042421   0.077713
   37  O  3  X   -0.123011  -0.029949  -0.115355  -0.030728   0.004414
   38  O  3  Y    0.084846   0.098487  -0.105889   0.041204   0.038113
   39  O  3  Z   -0.014395  -0.041628  -0.052369  -0.078472   0.047539
   40  O  3  S   -0.120377  -0.654267  -0.585126  -0.645105   0.014710
   41  O  3  X   -0.200257   0.124321  -0.071281   0.134499   0.095741
   42  O  3  Y    0.191151   0.406348   0.010185   0.309510  -0.112884
   43  O  3  Z    0.016624   0.232856   0.158857   0.044268   0.012333
   44  O  3 XX   -0.014328   0.036151   0.051612   0.024621  -0.022336
   45  O  3 YY    0.031958   0.015830   0.035083   0.006927   0.058710
   46  O  3 ZZ   -0.001203  -0.001683   0.012002   0.044708   0.024668
   47  O  3 XY   -0.016641  -0.016989  -0.010332  -0.034372   0.001072
   48  O  3 XZ   -0.007846  -0.024193  -0.025840  -0.014440  -0.023748
   49  O  3 YZ    0.010059  -0.043836  -0.037285  -0.027042   0.015501
   50  O  4  S   -0.069822   0.027580   0.000178   0.003906   0.017555
   51  O  4  S    0.044587   0.062445  -0.011322  -0.061425   0.098314
   52  O  4  X    0.012677   0.126454  -0.049477  -0.086270   0.137123
   53  O  4  Y   -0.027558  -0.115789  -0.031581   0.082392  -0.152431
   54  O  4  Z    0.192973   0.026112  -0.010850  -0.111221   0.147135
   55  O  4  S    1.139750  -0.787807   0.023509   0.181630  -0.810021
   56  O  4  X    0.129177  -0.075932  -0.163883  -0.028553   0.005334
   57  O  4  Y   -0.143527   0.066111  -0.177226   0.022531  -0.058278
   58  O  4  Z    0.372772  -0.200799  -0.003496  -0.261733  -0.041613
   59  O  4 XX   -0.033673   0.023104  -0.034555   0.011019   0.039519
   60  O  4 YY   -0.037588   0.023220   0.027017  -0.001665   0.039161
   61  O  4 ZZ   -0.045401   0.047141  -0.001970  -0.049126   0.008732
   62  O  4 XY   -0.003580   0.032011  -0.005503  -0.032270   0.024042
   63  O  4 XZ    0.005148  -0.024857  -0.016437  -0.006589  -0.048060
   64  O  4 YZ   -0.005284   0.024366  -0.025000   0.006267   0.032287
   65  O  5  S    0.069822   0.027580  -0.000178   0.003906  -0.017555
   66  O  5  S   -0.044587   0.062445   0.011322  -0.061425  -0.098314
   67  O  5  X    0.012677  -0.126454  -0.049477   0.086270   0.137123
   68  O  5  Y   -0.027558   0.115789  -0.031581  -0.082392  -0.152431
   69  O  5  Z   -0.192973   0.026112   0.010850  -0.111221  -0.147135
   70  O  5  S   -1.139750  -0.787807  -0.023509   0.181630   0.810021
   71  O  5  X    0.129177   0.075932  -0.163883   0.028553   0.005334
   72  O  5  Y   -0.143527  -0.066111  -0.177226  -0.022531  -0.058278
   73  O  5  Z   -0.372772  -0.200799   0.003496  -0.261733   0.041613
   74  O  5 XX    0.033673   0.023104   0.034555   0.011019  -0.039519
   75  O  5 YY    0.037588   0.023220  -0.027017  -0.001665  -0.039161
   76  O  5 ZZ    0.045401   0.047141   0.001970  -0.049126  -0.008732
   77  O  5 XY    0.003580   0.032011   0.005503  -0.032270  -0.024042
   78  O  5 XZ    0.005148   0.024857  -0.016437   0.006589  -0.048060
   79  O  5 YZ   -0.005284  -0.024366  -0.025000  -0.006267   0.032287
   80  H  6  S   -0.084776  -0.027523  -0.006170   0.003142  -0.069717
   81  H  6  S   -0.031837  -0.701258   0.267163  -0.477763   0.418040
   82  H  6  X    0.005100   0.018619  -0.015005   0.020260  -0.005752
   83  H  6  Y    0.008525   0.008653   0.001774   0.006759  -0.003141
   84  H  6  Z   -0.004608  -0.015472   0.012113  -0.002137   0.005969
   85  H  7  S    0.084776  -0.027523   0.006170   0.003142   0.069717
   86  H  7  S    0.031837  -0.701258  -0.267163  -0.477763  -0.418040
   87  H  7  X    0.005100  -0.018619  -0.015005  -0.020260  -0.005752
   88  H  7  Y    0.008525  -0.008653   0.001774  -0.006759  -0.003141
   89  H  7  Z    0.004608  -0.015472  -0.012113  -0.002137  -0.005969

                     36         37         38         39         40
                    0.8016     0.8233     0.9510     0.9853     1.0014
                     A          A          B          A          B   
    1  S  1  S    0.001304   0.003065   0.000000  -0.006160   0.000000
    2  S  1  S   -0.028574   0.008388   0.000000   0.031533   0.000000
    3  S  1  X    0.000000   0.000000  -0.088270   0.000000   0.098690
    4  S  1  Y    0.000000   0.000000   0.043875   0.000000  -0.107567
    5  S  1  Z   -0.007749   0.025056   0.000000  -0.044403   0.000000
    6  S  1  S   -0.048546   0.109206   0.000000  -0.079354   0.000000
    7  S  1  X    0.000000   0.000000   0.460441   0.000000  -0.583711
    8  S  1  Y    0.000000   0.000000  -0.172637   0.000000   0.620828
    9  S  1  Z    0.009735  -0.079867   0.000000   0.272889   0.000000
   10  S  1  S    0.331336  -0.236744   0.000000  -0.213563   0.000000
   11  S  1  X    0.000000   0.000000   0.201496   0.000000  -0.140242
   12  S  1  Y    0.000000   0.000000   0.060290   0.000000   0.145733
   13  S  1  Z    0.159884  -0.258350   0.000000  -0.094112   0.000000
   14  S  1 XX    0.632854  -0.186763   0.000000   0.132200   0.000000
   15  S  1 YY   -0.508491  -0.538678   0.000000  -0.143508   0.000000
   16  S  1 ZZ   -0.152335   0.743888   0.000000   0.033227   0.000000
   17  S  1 XY    0.079048  -0.185836   0.000000   0.350427   0.000000
   18  S  1 XZ    0.000000   0.000000   0.189959   0.000000   0.484997
   19  S  1 YZ    0.000000   0.000000   0.396337   0.000000  -0.196487
   20  O  2  S    0.017220  -0.004514  -0.003308  -0.010004  -0.005469
   21  O  2  S   -0.052061   0.040072   0.004922  -0.071532   0.122105
   22  O  2  X    0.102398  -0.095122  -0.276394   0.380209  -0.193430
   23  O  2  Y   -0.056823  -0.137078   0.093712  -0.148790   0.109683
   24  O  2  Z    0.048354  -0.230814   0.017282  -0.090243   0.048427
   25  O  2  S   -0.056583   0.032697   0.204050   0.061144  -0.113818
   26  O  2  X   -0.138726   0.086199   0.284333  -0.358054   0.283849
   27  O  2  Y    0.079795   0.150159   0.233680   0.017023  -0.097325
   28  O  2  Z   -0.049068   0.082358  -0.248555   0.197209  -0.100851
   29  O  2 XX   -0.053059   0.033889   0.021752  -0.095592   0.075293
   30  O  2 YY    0.059739   0.077013   0.078002  -0.122027   0.022331
   31  O  2 ZZ   -0.003172  -0.080504  -0.025483   0.021790   0.040254
   32  O  2 XY   -0.059921   0.064806  -0.136753   0.126937  -0.023844
   33  O  2 XZ    0.064197   0.034831   0.052485  -0.025945   0.006845
   34  O  2 YZ   -0.077634   0.007615  -0.035661   0.025986   0.009840
   35  O  3  S    0.017220  -0.004514   0.003308  -0.010004   0.005469
   36  O  3  S   -0.052061   0.040072  -0.004922  -0.071532  -0.122105
   37  O  3  X   -0.102398   0.095122  -0.276394  -0.380209  -0.193430
   38  O  3  Y    0.056823   0.137078   0.093712   0.148790   0.109683
   39  O  3  Z    0.048354  -0.230814  -0.017282  -0.090243  -0.048427
   40  O  3  S   -0.056583   0.032697  -0.204050   0.061144   0.113818
   41  O  3  X    0.138726  -0.086199   0.284333   0.358054   0.283849
   42  O  3  Y   -0.079795  -0.150159   0.233680  -0.017023  -0.097325
   43  O  3  Z   -0.049068   0.082358   0.248555   0.197209   0.100851
   44  O  3 XX   -0.053059   0.033889  -0.021752  -0.095592  -0.075293
   45  O  3 YY    0.059739   0.077013  -0.078002  -0.122027  -0.022331
   46  O  3 ZZ   -0.003172  -0.080504   0.025483   0.021790  -0.040254
   47  O  3 XY   -0.059921   0.064806   0.136753   0.126937   0.023844
   48  O  3 XZ   -0.064197  -0.034831   0.052485   0.025945   0.006845
   49  O  3 YZ    0.077634  -0.007615  -0.035661  -0.025986   0.009840
   50  O  4  S    0.002327   0.002401  -0.017424  -0.008309   0.029441
   51  O  4  S   -0.039367  -0.008631   0.051746   0.196424  -0.325996
   52  O  4  X    0.183936  -0.041354   0.024963   0.009698   0.130980
   53  O  4  Y    0.189104   0.105539   0.023979   0.109262  -0.096062
   54  O  4  Z   -0.057685   0.186058  -0.035652   0.050413   0.214904
   55  O  4  S    0.014310  -0.022475   0.174379  -0.170324   0.030211
   56  O  4  X   -0.017328  -0.029322   0.171505   0.190014  -0.555999
   57  O  4  Y    0.015644   0.033536  -0.184214  -0.201423   0.481305
   58  O  4  Z   -0.025173   0.009084   0.172271   0.087274  -0.475687
   59  O  4 XX   -0.067344  -0.001626  -0.024270   0.051552  -0.105790
   60  O  4 YY    0.033771   0.012002   0.039293   0.107768  -0.086463
   61  O  4 ZZ   -0.005344  -0.019643   0.007824   0.053595  -0.140674
   62  O  4 XY    0.004946  -0.060090   0.004946  -0.005009  -0.016058
   63  O  4 XZ   -0.036665  -0.053711  -0.011201  -0.022433   0.001203
   64  O  4 YZ   -0.059129   0.026617   0.013683  -0.018492   0.006675
   65  O  5  S    0.002327   0.002401   0.017424  -0.008309  -0.029441
   66  O  5  S   -0.039367  -0.008631  -0.051746   0.196424   0.325996
   67  O  5  X   -0.183936   0.041354   0.024963  -0.009698   0.130980
   68  O  5  Y   -0.189104  -0.105539   0.023979  -0.109262  -0.096062
   69  O  5  Z   -0.057685   0.186058   0.035652   0.050413  -0.214904
   70  O  5  S    0.014310  -0.022475  -0.174379  -0.170324  -0.030211
   71  O  5  X    0.017328   0.029322   0.171505  -0.190014  -0.555999
   72  O  5  Y   -0.015644  -0.033536  -0.184214   0.201423   0.481305
   73  O  5  Z   -0.025173   0.009084  -0.172271   0.087274   0.475687
   74  O  5 XX   -0.067344  -0.001626   0.024270   0.051552   0.105790
   75  O  5 YY    0.033771   0.012002  -0.039293   0.107768   0.086463
   76  O  5 ZZ   -0.005344  -0.019643  -0.007824   0.053595   0.140674
   77  O  5 XY    0.004946  -0.060090  -0.004946  -0.005009   0.016058
   78  O  5 XZ    0.036665   0.053711  -0.011201   0.022433   0.001203
   79  O  5 YZ    0.059129  -0.026617   0.013683   0.018492   0.006675
   80  H  6  S    0.369163   0.026507   0.552948  -0.437831  -0.021365
   81  H  6  S   -0.317193   0.079462  -0.433635   0.503065  -0.035569
   82  H  6  X    0.012717  -0.015724   0.073623  -0.089154   0.031539
   83  H  6  Y   -0.017784  -0.017342  -0.081727   0.095431  -0.027090
   84  H  6  Z    0.016688  -0.014361   0.024681  -0.019902   0.006361
   85  H  7  S    0.369163   0.026507  -0.552948  -0.437831   0.021365
   86  H  7  S   -0.317193   0.079462   0.433635   0.503065   0.035569
   87  H  7  X   -0.012717   0.015724   0.073623   0.089154   0.031539
   88  H  7  Y    0.017784   0.017342  -0.081727  -0.095431  -0.027090
   89  H  7  Z    0.016688  -0.014361  -0.024681  -0.019902  -0.006361

                     41         42         43         44         45
                    1.0205     1.1101     1.1128     1.1209     1.2094
                     A          A          B          A          B   
    1  S  1  S   -0.014324   0.000907   0.000000   0.006661   0.000000
    2  S  1  S   -0.061909   0.010313   0.000000   0.042692   0.000000
    3  S  1  X    0.000000   0.000000  -0.069126   0.000000   0.032057
    4  S  1  Y    0.000000   0.000000   0.005788   0.000000  -0.050043
    5  S  1  Z   -0.067850   0.006415   0.000000   0.001413   0.000000
    6  S  1  S   -0.500821   0.044679   0.000000   0.249504   0.000000
    7  S  1  X    0.000000   0.000000   0.368435   0.000000  -0.260564
    8  S  1  Y    0.000000   0.000000  -0.102140   0.000000   0.217244
    9  S  1  Z    0.393506  -0.042413   0.000000   0.001731   0.000000
   10  S  1  S   -0.053492   0.161047   0.000000   0.299428   0.000000
   11  S  1  X    0.000000   0.000000  -0.038950   0.000000   0.141570
   12  S  1  Y    0.000000   0.000000   0.484932   0.000000  -0.224573
   13  S  1  Z    0.145894  -0.207924   0.000000   0.034276   0.000000
   14  S  1 XX   -0.355569   0.241876   0.000000  -0.257141   0.000000
   15  S  1 YY   -0.064766   0.252962   0.000000   0.363123   0.000000
   16  S  1 ZZ    0.064729  -0.447560   0.000000   0.149486   0.000000
   17  S  1 XY    0.432092   0.042204   0.000000  -0.190405   0.000000
   18  S  1 XZ    0.000000   0.000000   0.333267   0.000000   0.500152
   19  S  1 YZ    0.000000   0.000000   0.572369   0.000000   0.201638
   20  O  2  S    0.010860  -0.005676  -0.020837  -0.000966  -0.029549
   21  O  2  S   -0.290167  -0.147489   0.535117  -0.343353  -0.299316
   22  O  2  X   -0.134625  -0.223607   0.112987   0.313525   0.213082
   23  O  2  Y    0.104434  -0.163434  -0.157352   0.233416   0.005874
   24  O  2  Z    0.062293  -0.420015   0.064110  -0.164392  -0.451978
   25  O  2  S    0.495879   0.368697  -0.901104   0.610892   0.756407
   26  O  2  X    0.066259   0.318244   0.031862  -0.416476  -0.157573
   27  O  2  Y   -0.193799   0.184505   0.439136  -0.241437   0.141288
   28  O  2  Z    0.007303   0.511584  -0.351591   0.182420   0.414124
   29  O  2 XX   -0.056493  -0.075147   0.106881  -0.065474  -0.101876
   30  O  2 YY   -0.035569  -0.074791   0.061713  -0.091535  -0.171167
   31  O  2 ZZ   -0.092811   0.028575   0.186945  -0.153695  -0.095045
   32  O  2 XY   -0.055744  -0.036857   0.075055  -0.036058  -0.038702
   33  O  2 XZ    0.013381   0.019783   0.016539  -0.001200   0.009101
   34  O  2 YZ   -0.026540  -0.013635   0.080380  -0.022381   0.054431
   35  O  3  S    0.010860  -0.005676   0.020837  -0.000966   0.029549
   36  O  3  S   -0.290167  -0.147489  -0.535117  -0.343353   0.299316
   37  O  3  X    0.134625   0.223607   0.112987  -0.313525   0.213082
   38  O  3  Y   -0.104434   0.163434  -0.157352  -0.233416   0.005874
   39  O  3  Z    0.062293  -0.420015  -0.064110  -0.164392   0.451978
   40  O  3  S    0.495879   0.368697   0.901104   0.610892  -0.756407
   41  O  3  X   -0.066259  -0.318244   0.031862   0.416476  -0.157573
   42  O  3  Y    0.193799  -0.184505   0.439136   0.241437   0.141288
   43  O  3  Z    0.007303   0.511584   0.351591   0.182420  -0.414124
   44  O  3 XX   -0.056493  -0.075147  -0.106881  -0.065474   0.101876
   45  O  3 YY   -0.035569  -0.074791  -0.061713  -0.091535   0.171167
   46  O  3 ZZ   -0.092811   0.028575  -0.186945  -0.153695   0.095045
   47  O  3 XY   -0.055744  -0.036857  -0.075055  -0.036058   0.038702
   48  O  3 XZ   -0.013381  -0.019783   0.016539   0.001200   0.009101
[...]

          --------------------------------------------------------
          NORMAL COORDINATE ANALYSIS IN THE HARMONIC APPROXIMATION
          --------------------------------------------------------

          ATOMIC WEIGHTS (AMU)

    1     S                31.97207
    2     O                15.99491
    3     O                15.99491
    4     O                15.99491
    5     O                15.99491
    6     H                 1.00782
    7     H                 1.00782

 MODES    1 TO    6 ARE TAKEN AS ROTATIONS AND TRANSLATIONS.

 ANALYZING SYMMETRY OF NORMAL MODES...

 --- SYMMETRY FOR NORMAL MODES ---
 INCLUDING TRANSLATION AND ROTATION
   10*A     11*B   
 EXCLUDING TRANSLATION AND ROTATION (SAYVETZ < 0.01)
    7*A      7*B   

     FREQUENCIES IN CM**-1, IR INTENSITIES IN DEBYE**2/AMU-ANGSTROM**2,
     REDUCED MASSES IN AMU.

                            1           2           3           4           5
       FREQUENCY:         4.69        3.64        1.85        0.04        0.29  
        SYMMETRY:         A           B           B           B           A   
    REDUCED MASS:      8.91847     9.54477     9.91475    14.05479    13.96292
    IR INTENSITY:      0.00000     0.08615     0.07740     0.00003     0.00000

  1   S            X  0.00000029  0.00179208  0.04042781 -0.03541720 -0.00004653
                   Y  0.00000076 -0.01164230  0.02166922  0.09470672  0.00012683
                   Z -0.00626950  0.00000199  0.00000524 -0.00013489  0.10083318
  2   O            X -0.08769782 -0.06906156 -0.02932758 -0.03366912 -0.00550561
                   Y  0.08208829  0.05959248 -0.04295648  0.09463512  0.00524755
                   Z -0.00627876  0.00440088 -0.11622533  0.00126823  0.10084333
  3   O            X  0.08769875 -0.06906069 -0.02932747 -0.03368473  0.00542853
                   Y -0.08208739  0.05959166 -0.04295659  0.09464973 -0.00498824
                   Z -0.00627851 -0.00439690  0.11623582 -0.00153801  0.10082487
  4   O            X  0.08049923  0.04786747  0.08579804 -0.03655260  0.00496112
                   Y  0.09253771 -0.05796080  0.06370206  0.09473652  0.00588970
                   Z -0.00627862 -0.12531872 -0.01277061  0.00155130  0.10084591
  5   O            X -0.08049888  0.04786666  0.08579793 -0.03653828 -0.00506456
                   Y -0.09253580 -0.05796172  0.06370194  0.09475299 -0.00563974
                   Z -0.00627946  0.12532270  0.01278110 -0.00182110  0.10083551
  6   H            X -0.16008198 -0.08675782 -0.04680730 -0.03324528 -0.00999695
                   Y  0.02866905  0.07746030 -0.05916308  0.09459404  0.00194715
                   Z -0.00663948  0.09535613 -0.12604785  0.00023221  0.10086369
  7   H            X  0.16008299 -0.08675622 -0.04680709 -0.03327373  0.00992382
                   Y -0.02866830  0.07746002 -0.05916312  0.09459922 -0.00168650
                   Z -0.00663859 -0.09535215  0.12605834 -0.00050204  0.10084985

 TRANS. SAYVETZ    X  0.00003043 -0.79556944  3.00469375 -3.44580130 -0.00444897
                   Y  0.00007002 -0.16392641  1.23720158  9.27710540  0.01246340
                   Z -0.61554847  0.00019503  0.00051378 -0.01321481  9.87867826
               TOTAL  0.61554847  0.81228237  3.24943881  9.89638347  9.87868713

   ROT. SAYVETZ    X  0.00005886-13.67400623 12.44741295  0.01140659 -0.00054732
                   Y  0.00003316-13.40317422-13.23839762  0.32911160  0.00151385
                   Z-19.67522825 -0.00009812 -0.00001266  0.00175045 -1.22597824
               TOTAL 19.67522825 19.14741564 18.17122067  0.32931386  1.22597929

                            6           7           8           9          10
       FREQUENCY:         0.72      237.62      311.44      355.22      425.01  
        SYMMETRY:         B           A           B           A           A   
    REDUCED MASS:     11.16759     1.37267     1.13280    12.31795     2.79347
    IR INTENSITY:      0.00985     2.46401     1.57851     0.11527     0.61401

  1   S            X  0.08669436  0.00000000  0.00564285 -0.00000000 -0.00000000
                   Y  0.02882220 -0.00000000 -0.01674693 -0.00000000  0.00000000
                   Z -0.00000345 -0.01980144 -0.00000000 -0.01244403  0.00878767
  2   O            X  0.10490551 -0.03068376 -0.02289443  0.09470122 -0.04130075
                   Y  0.05749159  0.05818976 -0.01461981  0.03330638  0.07729924
                   Z  0.04089814  0.01611807 -0.03636119  0.09709281  0.04192966
  3   O            X  0.10490435  0.03068376 -0.02289443 -0.09470122  0.04130075
                   Y  0.05749268 -0.05818976 -0.01461981 -0.03330638 -0.07729924
                   Z -0.04090504  0.01611807  0.03636119  0.09709281  0.04192966
  4   O            X  0.07484489 -0.03066712  0.00548733  0.06193432 -0.04900100
                   Y  0.01017160 -0.04707906  0.01030514  0.01686470 -0.09018988
                   Z -0.00635260 -0.02679645  0.03408168 -0.08274997 -0.03565975
  5   O            X  0.07484595  0.03066712  0.00548733 -0.06193432  0.04900100
                   Y  0.01017282  0.04707906  0.01030514 -0.01686470  0.09018988
                   Z  0.00634570 -0.02679645 -0.03408168 -0.08274998 -0.03565975
  6   H            X  0.10944413  0.12128817  0.18711514  0.09518561 -0.26186944
                   Y  0.06463692  0.32773728  0.33469509 -0.00864508 -0.17923424
                   Z  0.05209669  0.48319067  0.53929495 -0.03010356 -0.23875485
  7   H            X  0.10944202 -0.12128817  0.18711514 -0.09518562  0.26186944
                   Y  0.06463731 -0.32773728  0.33469508  0.00864508  0.17923424
                   Z -0.05210359  0.48319067 -0.53929495 -0.03010356 -0.23875485

 TRANS. SAYVETZ    X  8.74257844  0.00000006  0.00072207 -0.00000006  0.00000003
                   Y  3.21636116 -0.00000001  0.00116846 -0.00000002 -0.00000000
                   Z -0.00033806 -0.00074928 -0.00000001  0.00028513  0.00028724
               TOTAL  9.31545259  0.00074928  0.00137356  0.00028513  0.00028724

   ROT. SAYVETZ    X -5.51782121 -0.00000001  0.00234843 -0.00000001 -0.00000000
                   Y  3.45987564 -0.00000004  0.00055164  0.00000001 -0.00000000
                   Z  0.00012994 -0.01293953 -0.00000000  0.00177396  0.00373559
               TOTAL  6.51284042  0.01293953  0.00241235  0.00177396  0.00373559

                           11          12          13          14          15
       FREQUENCY:       477.94      527.22      529.86      810.38      874.12  
        SYMMETRY:         B           B           A           A           B   
    REDUCED MASS:      4.66506    14.70894    13.66116    15.30951    18.81853
    IR INTENSITY:      1.31150     0.71976     1.30269     3.00943     8.36176

  1   S            X  0.05781316  0.04953363  0.00000001  0.00000000  0.08181542
                   Y -0.04717163  0.05118037  0.00000001  0.00000000  0.09421845
                   Z  0.00000000 -0.00000001  0.07417227  0.07823757 -0.00000000
  2   O            X -0.06580613  0.02596310 -0.06360047  0.06993715 -0.06772346
                   Y  0.06907042  0.03671011 -0.08268730  0.07530477 -0.07571336
                   Z  0.00993602 -0.09836137 -0.00171737 -0.09494861  0.06836555
  3   O            X -0.06580613  0.02596309  0.06360048 -0.06993715 -0.06772346
                   Y  0.06907041  0.03671009  0.08268731 -0.07530477 -0.07571336
                   Z -0.00993602  0.09836137 -0.00171734 -0.09494861 -0.06836555
  4   O            X  0.02547157 -0.07644794  0.07391468  0.05275066 -0.01471082
                   Y -0.01659799 -0.09081322 -0.05285994 -0.04641544 -0.01673688
                   Z  0.10138548  0.00689808 -0.07794151  0.01811778 -0.00089238
  5   O            X  0.02547157 -0.07644792 -0.07391470 -0.05275066 -0.01471082
                   Y -0.01659799 -0.09081324  0.05285992  0.04641544 -0.01673688
                   Z -0.10138548 -0.00689806 -0.07794151  0.01811778  0.00089238
  6   H            X -0.27699285  0.01545158 -0.01931559  0.01160900  0.01053094
                   Y -0.08453974  0.04685553 -0.02331064  0.06444598 -0.02726338
                   Z  0.01098753 -0.05645034  0.08783668 -0.02163989  0.04939401
  7   H            X -0.27699285  0.01545158  0.01931560 -0.01160900  0.01053094
                   Y -0.08453974  0.04685553  0.02331065 -0.06444598 -0.02726338
                   Z -0.01098753  0.05645032  0.08783670 -0.02163989 -0.04939401

 TRANS. SAYVETZ    X -0.00020984 -0.00016330  0.00000000  0.00000000 -0.00002258
                   Y  0.00000635  0.00003723  0.00000002 -0.00000000 -0.00006107
                   Z  0.00000001  0.00000001  0.00021620 -0.00000574 -0.00000000
               TOTAL  0.00020993  0.00016749  0.00021620  0.00000574  0.00006511

   ROT. SAYVETZ    X -0.00022380  0.00024417  0.00000001  0.00000000  0.00028512
                   Y -0.00024568 -0.00045441  0.00000001  0.00000001 -0.00030696
                   Z -0.00000000  0.00000001 -0.00052204  0.00021949  0.00000001
               TOTAL  0.00033233  0.00051586  0.00052204  0.00021949  0.00041895

                           16          17          18          19          20
       FREQUENCY:      1172.88     1189.11     1227.07     1490.56     3817.79  
        SYMMETRY:         A           B           A           B           B   
    REDUCED MASS:      1.11574     1.27895    17.00411     9.13201     1.06564
    IR INTENSITY:      2.02056     2.43619     4.15990     6.55802     4.76985

  1   S            X  0.00000000 -0.01500189 -0.00000000  0.09012459  0.00058666
                   Y  0.00000000 -0.00291964 -0.00000000 -0.08283002 -0.00077274
                   Z  0.00602769 -0.00000000  0.09374100  0.00000000 -0.00000000
  2   O            X -0.04946519 -0.05036649  0.00502714 -0.01729604  0.02324079
                   Y  0.01534275  0.01854860  0.01116633  0.00844316 -0.03348093
                   Z  0.01269264  0.01140156 -0.01677664  0.00297729  0.01214948
  3   O            X  0.04946519 -0.05036649 -0.00502714 -0.01729604  0.02324079
                   Y -0.01534275  0.01854860 -0.01116633  0.00844316 -0.03348093
                   Z  0.01269264 -0.01140156 -0.01677664 -0.00297729 -0.01214948
  4   O            X  0.00470071  0.03717623 -0.09648221 -0.08092152  0.00011996
                   Y -0.01705176 -0.03091129  0.08239644  0.06998476  0.00045242
                   Z  0.00576063  0.03850702 -0.07601100 -0.04874968  0.00009438
  5   O            X -0.00470071  0.03717623  0.09648221 -0.08092152  0.00011996
                   Y  0.01705176 -0.03091129 -0.08239644  0.06998476  0.00045242
                   Z  0.00576063 -0.03850702 -0.07601100  0.04874968 -0.00009438
  6   H            X  0.48153600  0.44731165  0.03884382  0.12922349 -0.38005658
                   Y  0.24925921  0.24253535  0.03149746  0.06914862  0.53645093
                   Z -0.38848059 -0.35367448 -0.01424616 -0.10760400 -0.18753955
  7   H            X -0.48153600  0.44731165 -0.03884382  0.12922349 -0.38005658
                   Y -0.24925921  0.24253536 -0.03149746  0.06914862  0.53645093
                   Z -0.38848059  0.35367448 -0.01424616  0.10760400  0.18753955

 TRANS. SAYVETZ    X  0.00000000  0.00002856 -0.00000000 -0.00002321  0.00000177
                   Y  0.00000000  0.00003933 -0.00000000  0.00002730  0.00001540
                   Z -0.00000630  0.00000000  0.00011886  0.00000000 -0.00000000
               TOTAL  0.00000630  0.00004860  0.00011886  0.00003584  0.00001550

   ROT. SAYVETZ    X  0.00000000  0.00006969 -0.00000000  0.00018302 -0.00004237
                   Y -0.00000000  0.00001926  0.00000000  0.00022420  0.00000990
                   Z -0.00072399 -0.00000000  0.00026269 -0.00000000 -0.00000000
               TOTAL  0.00072399  0.00007230  0.00026269  0.00028942  0.00004351

                           21
       FREQUENCY:      3822.07  
        SYMMETRY:         A   
    REDUCED MASS:      1.06599
    IR INTENSITY:      1.18736

  1   S            X -0.00000000
                   Y -0.00000000
                   Z -0.00034580
  2   O            X -0.02269798
                   Y  0.03401054
                   Z -0.01213842
  3   O            X  0.02269798
                   Y -0.03401054
                   Z -0.01213842
  4   O            X  0.00060146
                   Y -0.00030005
                   Z  0.00065989
  5   O            X -0.00060146
                   Y  0.00030005
                   Z  0.00065989
  6   H            X  0.37967343
                   Y -0.53652810
                   Z  0.18765574
  7   H            X -0.37967343
                   Y  0.53652810
                   Z  0.18765574

 TRANS. SAYVETZ    X -0.00000000
                   Y -0.00000000
                   Z -0.00000343
               TOTAL  0.00000343

   ROT. SAYVETZ    X -0.00000000
                   Y  0.00000000
                   Z -0.00002897
               TOTAL  0.00002897

 REFERENCE ON SAYVETZ CONDITIONS - A. SAYVETZ, J.CHEM.PHYS., 7, 383-389(1939).

 NOTE - THE MODES J,K ARE ORTHONORMALIZED ACCORDING TO
 SUM ON I   M(I) * (X(I,J)*X(I,K) + Y(I,J)*Y(I,K) + Z(I,J)*Z(I,K)) = DELTA(J,K)

  MODE FREQ(CM**-1)  SYMMETRY  RED. MASS  IR INTENS.
     1       4.690    A        8.918470    0.000001
     2       3.644    B        9.544773    0.086149
     3       1.850    B        9.914748    0.077402
     4       0.040    B       14.054790    0.000026
     5       0.291    A       13.962918    0.000000
     6       0.716    B       11.167585    0.009846
     7     237.622    A        1.372668    2.464012
     8     311.438    B        1.132795    1.578510
     9     355.224    A       12.317948    0.115269
    10     425.009    A        2.793468    0.614013
    11     477.941    B        4.665063    1.311499
    12     527.216    B       14.708944    0.719758
    13     529.855    A       13.661159    1.302689
    14     810.376    A       15.309515    3.009425
    15     874.123    B       18.818530    8.361765
    16    1172.877    A        1.115743    2.020557
    17    1189.107    B        1.278953    2.436189
    18    1227.066    A       17.004114    4.159902
    19    1490.560    B        9.132006    6.558020
    20    3817.790    B        1.065637    4.769851
    21    3822.069    A        1.065986    1.187365

     -------------------------------
     THERMOCHEMISTRY AT T=  298.15 K
     -------------------------------

 USING IDEAL GAS, RIGID ROTOR, HARMONIC NORMAL MODE APPROXIMATIONS.
 P=  1.01325E+05 PASCAL.
 ALL FREQUENCIES ARE SCALED BY   1.00000
 THE MOMENTS OF INERTIA ARE (IN AMU*BOHR**2)
    366.91413   372.42820   388.61782
 THE ROTATIONAL SYMMETRY NUMBER IS  2.0
 THE ROTATIONAL CONSTANTS ARE (IN GHZ)
      4.91420     4.84144     4.63975
      7 -     21 VIBRATIONAL MODES ARE USED IN THERMOCHEMISTRY.
 THE HARMONIC ZERO POINT ENERGY IS (SCALED BY   1.000)
        0.039340 HARTREE/MOLECULE     8634.135929 CM**-1/MOLECULE 
       24.686258 KCAL/MOL              103.287304 KJ/MOL

               Q               LN Q
 ELEC.     1.00000E+00       0.000000
 TRANS.    3.81132E+07      17.456072
 ROT.      4.12455E+04      10.627297
 VIB.      3.60679E+00       1.282817
 TOT.      5.66986E+12      29.366186

              E         H         G         CV        CP        S
           KJ/MOL    KJ/MOL    KJ/MOL   J/MOL-K   J/MOL-K   J/MOL-K
 ELEC.      0.000     0.000     0.000     0.000     0.000     0.000
 TRANS.     3.718     6.197   -43.273    12.472    20.786   165.923
 ROT.       3.718     3.718   -26.344    12.472    12.472   100.831
 VIB.     109.566   109.566   100.107    50.035    50.035    31.724
 TOTAL    117.003   119.482    30.490    74.978    83.292   298.479
 VIB. THERMAL CORRECTION E(T)-E(0) = H(T)-H(0) =  6278.630 J/MOL

              E         H         G         CV        CP        S
         KCAL/MOL  KCAL/MOL  KCAL/MOL CAL/MOL-K CAL/MOL-K CAL/MOL-K
 ELEC.      0.000     0.000     0.000     0.000     0.000     0.000
 TRANS.     0.889     1.481   -10.342     2.981     4.968    39.657
 ROT.       0.889     0.889    -6.296     2.981     2.981    24.099
 VIB.      26.187    26.187    23.926    11.959    11.959     7.582
 TOTAL     27.964    28.557     7.287    17.920    19.907    71.338
 VIB. THERMAL CORRECTION E(T)-E(0) = H(T)-H(0) =  1500.629 CAL/MOL
 ......END OF NORMAL COORDINATE ANALYSIS......
 CPU     0: STEP CPU TIME=     0.00 TOTAL CPU TIME=         11.1 (      0.2 MIN)
 TOTAL WALL CLOCK TIME=         31.2 SECONDS, CPU UTILIZATION IS    35.47%
               1702966  WORDS OF DYNAMIC MEMORY USED
 EXECUTION OF GAMESS TERMINATED NORMALLY Fri Apr 19 08:10:49 2019
 DDI: 263640 bytes (0.3 MB / 0 MWords) used by master data server.

 ----------------------------------------
 CPU timing information for all processes
 ========================================
 0: 8.685 + 2.579 = 11.264
 1: 6.412 + 2.433 = 8.846
 2: 6.805 + 7.99 = 13.905
 3: 8.267 + 2.444 = 10.712
 4: 6.377 + 2.492 = 8.869
 5: 6.596 + 2.419 = 9.16
 6: 16.768 + 2.723 = 19.492
 7: 12.10 + 2.617 = 14.627
 8: 13.206 + 2.527 = 15.733
 9: 6.296 + 2.454 = 8.751
 10: 14.426 + 2.664 = 17.90
 11: 10.793 + 2.456 = 13.250
 12: 12.658 + 2.628 = 15.287
 13: 6.171 + 2.387 = 8.559
 14: 13.375 + 11.834 = 25.210
 15: 10.426 + 2.519 = 12.946
 16: 10.670 + 2.431 = 13.102
 17: 5.793 + 2.259 = 8.53
 18: 11.837 + 2.478 = 14.316
 19: 8.129 + 2.401 = 10.530
 20: 8.884 + 2.365 = 11.250
 21: 5.509 + 2.380 = 7.889
 22: 13.800 + 2.532 = 16.332
 23: 10.587 + 2.346 = 12.934
 ----------------------------------------
 ddikick.x: exited gracefully.
----- accounting info -----
Files used on the master node gpuv100001.cofc.edu were:
-rw-r----- 1 bt-local local     922 Apr 19 08:10 /scratch/bt-local/test.F05
-rw-r--r-- 1 bt-local local 5580496 Apr 19 08:10 /scratch/bt-local/test.F08
-rw-r--r-- 1 bt-local local 2700240 Apr 19 08:10 /scratch/bt-local/test.F08.001
-rw-r--r-- 1 bt-local local 2160192 Apr 19 08:10 /scratch/bt-local/test.F08.002
-rw-r--r-- 1 bt-local local 2520224 Apr 19 08:10 /scratch/bt-local/test.F08.003
-rw-r--r-- 1 bt-local local 2340208 Apr 19 08:10 /scratch/bt-local/test.F08.004
-rw-r--r-- 1 bt-local local 2340208 Apr 19 08:10 /scratch/bt-local/test.F08.005
-rw-r--r-- 1 bt-local local 5400480 Apr 19 08:10 /scratch/bt-local/test.F08.006
-rw-r--r-- 1 bt-local local 2700240 Apr 19 08:10 /scratch/bt-local/test.F08.007
-rw-r--r-- 1 bt-local local 2340208 Apr 19 08:10 /scratch/bt-local/test.F08.008
-rw-r--r-- 1 bt-local local 2700240 Apr 19 08:10 /scratch/bt-local/test.F08.009
-rw-r--r-- 1 bt-local local 3420304 Apr 19 08:10 /scratch/bt-local/test.F08.010
-rw-r--r-- 1 bt-local local 2160192 Apr 19 08:10 /scratch/bt-local/test.F08.011
-rw-r--r-- 1 bt-local local 5940528 Apr 19 08:10 /scratch/bt-local/test.F08.012
-rw-r--r-- 1 bt-local local 5580496 Apr 19 08:10 /scratch/bt-local/test.F08.013
-rw-r--r-- 1 bt-local local 6480576 Apr 19 08:10 /scratch/bt-local/test.F08.014
-rw-r--r-- 1 bt-local local 6120544 Apr 19 08:10 /scratch/bt-local/test.F08.015
-rw-r--r-- 1 bt-local local 2880256 Apr 19 08:10 /scratch/bt-local/test.F08.016
-rw-r--r-- 1 bt-local local 5580496 Apr 19 08:10 /scratch/bt-local/test.F08.017
-rw-r--r-- 1 bt-local local 5400480 Apr 19 08:10 /scratch/bt-local/test.F08.018
-rw-r--r-- 1 bt-local local 2160192 Apr 19 08:10 /scratch/bt-local/test.F08.019
-rw-r--r-- 1 bt-local local 1980176 Apr 19 08:10 /scratch/bt-local/test.F08.020
-rw-r--r-- 1 bt-local local 2520224 Apr 19 08:10 /scratch/bt-local/test.F08.021
-rw-r--r-- 1 bt-local local 2340208 Apr 19 08:10 /scratch/bt-local/test.F08.022
-rw-r--r-- 1 bt-local local 3240288 Apr 19 08:10 /scratch/bt-local/test.F08.023
-rw-r--r-- 1 bt-local local 2126800 Apr 19 08:10 /scratch/bt-local/test.F10
-rw-r--r-- 1 bt-local local  279019 Apr 19 08:10 /scratch/bt-local/test.dat
-rw-r--r-- 1 bt-local local   11520 Apr 19 08:10 /scratch/bt-local/test.rst
Fri Apr 19 08:10:52 EDT 2019
0.123u 0.086s 0:35.09 0.5%	0+0k 1360+200io 7pf+0w
